+ 1 0 1 cbr 512 ------- 0 0.0 8.0 0 0
- 1 0 1 cbr 512 ------- 0 0.0 8.0 0 0
+ 1.01 0 1 cbr 512 ------- 0 0.0 8.0 1 1
- 1.01 0 1 cbr 512 ------- 0 0.0 8.0 1 1
r 1.014096 0 1 cbr 512 ------- 0 0.0 8.0 0 0
+ 1.014096 1 2 cbr 512 ------- 0 0.0 8.0 0 0
- 1.014096 1 2 cbr 512 ------- 0 0.0 8.0 0 0
+ 1.02 0 1 cbr 512 ------- 0 0.0 8.0 2 2
- 1.02 0 1 cbr 512 ------- 0 0.0 8.0 2 2
r 1.024096 0 1 cbr 512 ------- 0 0.0 8.0 1 1
+ 1.024096 1 2 cbr 512 ------- 0 0.0 8.0 1 1
- 1.024096 1 2 cbr 512 ------- 0 0.0 8.0 1 1
r 1.028192 1 2 cbr 512 ------- 0 0.0 8.0 0 0
+ 1.028192 2 5 cbr 512 ------- 0 0.0 8.0 0 0
- 1.028192 2 5 cbr 512 ------- 0 0.0 8.0 0 0
+ 1.03 0 1 cbr 512 ------- 0 0.0 8.0 3 3
- 1.03 0 1 cbr 512 ------- 0 0.0 8.0 3 3
r 1.034096 0 1 cbr 512 ------- 0 0.0 8.0 2 2
+ 1.034096 1 2 cbr 512 ------- 0 0.0 8.0 2 2
- 1.034096 1 2 cbr 512 ------- 0 0.0 8.0 2 2
r 1.038192 1 2 cbr 512 ------- 0 0.0 8.0 1 1
+ 1.038192 2 5 cbr 512 ------- 0 0.0 8.0 1 1
- 1.038192 2 5 cbr 512 ------- 0 0.0 8.0 1 1
+ 1.04 0 1 cbr 512 ------- 0 0.0 8.0 4 4
- 1.04 0 1 cbr 512 ------- 0 0.0 8.0 4 4
r 1.042288 2 5 cbr 512 ------- 0 0.0 8.0 0 0
+ 1.042288 5 8 cbr 512 ------- 0 0.0 8.0 0 0
- 1.042288 5 8 cbr 512 ------- 0 0.0 8.0 0 0
r 1.044096 0 1 cbr 512 ------- 0 0.0 8.0 3 3
+ 1.044096 1 2 cbr 512 ------- 0 0.0 8.0 3 3
- 1.044096 1 2 cbr 512 ------- 0 0.0 8.0 3 3
r 1.048192 1 2 cbr 512 ------- 0 0.0 8.0 2 2
+ 1.048192 2 5 cbr 512 ------- 0 0.0 8.0 2 2
- 1.048192 2 5 cbr 512 ------- 0 0.0 8.0 2 2
+ 1.05 0 1 cbr 512 ------- 0 0.0 8.0 5 5
- 1.05 0 1 cbr 512 ------- 0 0.0 8.0 5 5
r 1.052288 2 5 cbr 512 ------- 0 0.0 8.0 1 1
+ 1.052288 5 8 cbr 512 ------- 0 0.0 8.0 1 1
- 1.052288 5 8 cbr 512 ------- 0 0.0 8.0 1 1
r 1.054096 0 1 cbr 512 ------- 0 0.0 8.0 4 4
+ 1.054096 1 2 cbr 512 ------- 0 0.0 8.0 4 4
- 1.054096 1 2 cbr 512 ------- 0 0.0 8.0 4 4
r 1.056384 5 8 cbr 512 ------- 0 0.0 8.0 0 0
r 1.058192 1 2 cbr 512 ------- 0 0.0 8.0 3 3
+ 1.058192 2 5 cbr 512 ------- 0 0.0 8.0 3 3
- 1.058192 2 5 cbr 512 ------- 0 0.0 8.0 3 3
+ 1.06 0 1 cbr 512 ------- 0 0.0 8.0 6 6
- 1.06 0 1 cbr 512 ------- 0 0.0 8.0 6 6
r 1.062288 2 5 cbr 512 ------- 0 0.0 8.0 2 2
+ 1.062288 5 8 cbr 512 ------- 0 0.0 8.0 2 2
- 1.062288 5 8 cbr 512 ------- 0 0.0 8.0 2 2
r 1.064096 0 1 cbr 512 ------- 0 0.0 8.0 5 5
+ 1.064096 1 2 cbr 512 ------- 0 0.0 8.0 5 5
- 1.064096 1 2 cbr 512 ------- 0 0.0 8.0 5 5
r 1.066384 5 8 cbr 512 ------- 0 0.0 8.0 1 1
r 1.068192 1 2 cbr 512 ------- 0 0.0 8.0 4 4
+ 1.068192 2 5 cbr 512 ------- 0 0.0 8.0 4 4
- 1.068192 2 5 cbr 512 ------- 0 0.0 8.0 4 4
+ 1.07 0 1 cbr 512 ------- 0 0.0 8.0 7 7
- 1.07 0 1 cbr 512 ------- 0 0.0 8.0 7 7
r 1.072288 2 5 cbr 512 ------- 0 0.0 8.0 3 3
+ 1.072288 5 8 cbr 512 ------- 0 0.0 8.0 3 3
- 1.072288 5 8 cbr 512 ------- 0 0.0 8.0 3 3
r 1.074096 0 1 cbr 512 ------- 0 0.0 8.0 6 6
+ 1.074096 1 2 cbr 512 ------- 0 0.0 8.0 6 6
- 1.074096 1 2 cbr 512 ------- 0 0.0 8.0 6 6
r 1.076384 5 8 cbr 512 ------- 0 0.0 8.0 2 2
r 1.078192 1 2 cbr 512 ------- 0 0.0 8.0 5 5
+ 1.078192 2 5 cbr 512 ------- 0 0.0 8.0 5 5
- 1.078192 2 5 cbr 512 ------- 0 0.0 8.0 5 5
+ 1.08 0 1 cbr 512 ------- 0 0.0 8.0 8 8
- 1.08 0 1 cbr 512 ------- 0 0.0 8.0 8 8
r 1.082288 2 5 cbr 512 ------- 0 0.0 8.0 4 4
+ 1.082288 5 8 cbr 512 ------- 0 0.0 8.0 4 4
- 1.082288 5 8 cbr 512 ------- 0 0.0 8.0 4 4
r 1.084096 0 1 cbr 512 ------- 0 0.0 8.0 7 7
+ 1.084096 1 2 cbr 512 ------- 0 0.0 8.0 7 7
- 1.084096 1 2 cbr 512 ------- 0 0.0 8.0 7 7
r 1.086384 5 8 cbr 512 ------- 0 0.0 8.0 3 3
r 1.088192 1 2 cbr 512 ------- 0 0.0 8.0 6 6
+ 1.088192 2 5 cbr 512 ------- 0 0.0 8.0 6 6
- 1.088192 2 5 cbr 512 ------- 0 0.0 8.0 6 6
+ 1.09 0 1 cbr 512 ------- 0 0.0 8.0 9 9
- 1.09 0 1 cbr 512 ------- 0 0.0 8.0 9 9
r 1.092288 2 5 cbr 512 ------- 0 0.0 8.0 5 5
+ 1.092288 5 8 cbr 512 ------- 0 0.0 8.0 5 5
- 1.092288 5 8 cbr 512 ------- 0 0.0 8.0 5 5
r 1.094096 0 1 cbr 512 ------- 0 0.0 8.0 8 8
+ 1.094096 1 2 cbr 512 ------- 0 0.0 8.0 8 8
- 1.094096 1 2 cbr 512 ------- 0 0.0 8.0 8 8
r 1.096384 5 8 cbr 512 ------- 0 0.0 8.0 4 4
r 1.098192 1 2 cbr 512 ------- 0 0.0 8.0 7 7
+ 1.098192 2 5 cbr 512 ------- 0 0.0 8.0 7 7
- 1.098192 2 5 cbr 512 ------- 0 0.0 8.0 7 7
+ 1.1 0 1 cbr 512 ------- 0 0.0 8.0 10 10
- 1.1 0 1 cbr 512 ------- 0 0.0 8.0 10 10
r 1.102288 2 5 cbr 512 ------- 0 0.0 8.0 6 6
+ 1.102288 5 8 cbr 512 ------- 0 0.0 8.0 6 6
- 1.102288 5 8 cbr 512 ------- 0 0.0 8.0 6 6
r 1.104096 0 1 cbr 512 ------- 0 0.0 8.0 9 9
+ 1.104096 1 2 cbr 512 ------- 0 0.0 8.0 9 9
- 1.104096 1 2 cbr 512 ------- 0 0.0 8.0 9 9
r 1.106384 5 8 cbr 512 ------- 0 0.0 8.0 5 5
r 1.108192 1 2 cbr 512 ------- 0 0.0 8.0 8 8
+ 1.108192 2 5 cbr 512 ------- 0 0.0 8.0 8 8
- 1.108192 2 5 cbr 512 ------- 0 0.0 8.0 8 8
+ 1.11 0 1 cbr 512 ------- 0 0.0 8.0 11 11
- 1.11 0 1 cbr 512 ------- 0 0.0 8.0 11 11
r 1.112288 2 5 cbr 512 ------- 0 0.0 8.0 7 7
+ 1.112288 5 8 cbr 512 ------- 0 0.0 8.0 7 7
- 1.112288 5 8 cbr 512 ------- 0 0.0 8.0 7 7
r 1.114096 0 1 cbr 512 ------- 0 0.0 8.0 10 10
+ 1.114096 1 2 cbr 512 ------- 0 0.0 8.0 10 10
- 1.114096 1 2 cbr 512 ------- 0 0.0 8.0 10 10
r 1.116384 5 8 cbr 512 ------- 0 0.0 8.0 6 6
r 1.118192 1 2 cbr 512 ------- 0 0.0 8.0 9 9
+ 1.118192 2 5 cbr 512 ------- 0 0.0 8.0 9 9
- 1.118192 2 5 cbr 512 ------- 0 0.0 8.0 9 9
+ 1.12 0 1 cbr 512 ------- 0 0.0 8.0 12 12
- 1.12 0 1 cbr 512 ------- 0 0.0 8.0 12 12
r 1.122288 2 5 cbr 512 ------- 0 0.0 8.0 8 8
+ 1.122288 5 8 cbr 512 ------- 0 0.0 8.0 8 8
- 1.122288 5 8 cbr 512 ------- 0 0.0 8.0 8 8
r 1.124096 0 1 cbr 512 ------- 0 0.0 8.0 11 11
+ 1.124096 1 2 cbr 512 ------- 0 0.0 8.0 11 11
- 1.124096 1 2 cbr 512 ------- 0 0.0 8.0 11 11
r 1.126384 5 8 cbr 512 ------- 0 0.0 8.0 7 7
r 1.128192 1 2 cbr 512 ------- 0 0.0 8.0 10 10
+ 1.128192 2 5 cbr 512 ------- 0 0.0 8.0 10 10
- 1.128192 2 5 cbr 512 ------- 0 0.0 8.0 10 10
+ 1.13 0 1 cbr 512 ------- 0 0.0 8.0 13 13
- 1.13 0 1 cbr 512 ------- 0 0.0 8.0 13 13
r 1.132288 2 5 cbr 512 ------- 0 0.0 8.0 9 9
+ 1.132288 5 8 cbr 512 ------- 0 0.0 8.0 9 9
- 1.132288 5 8 cbr 512 ------- 0 0.0 8.0 9 9
r 1.134096 0 1 cbr 512 ------- 0 0.0 8.0 12 12
+ 1.134096 1 2 cbr 512 ------- 0 0.0 8.0 12 12
- 1.134096 1 2 cbr 512 ------- 0 0.0 8.0 12 12
r 1.136384 5 8 cbr 512 ------- 0 0.0 8.0 8 8
r 1.138192 1 2 cbr 512 ------- 0 0.0 8.0 11 11
+ 1.138192 2 5 cbr 512 ------- 0 0.0 8.0 11 11
- 1.138192 2 5 cbr 512 ------- 0 0.0 8.0 11 11
+ 1.14 0 1 cbr 512 ------- 0 0.0 8.0 14 14
- 1.14 0 1 cbr 512 ------- 0 0.0 8.0 14 14
r 1.142288 2 5 cbr 512 ------- 0 0.0 8.0 10 10
+ 1.142288 5 8 cbr 512 ------- 0 0.0 8.0 10 10
- 1.142288 5 8 cbr 512 ------- 0 0.0 8.0 10 10
r 1.144096 0 1 cbr 512 ------- 0 0.0 8.0 13 13
+ 1.144096 1 2 cbr 512 ------- 0 0.0 8.0 13 13
- 1.144096 1 2 cbr 512 ------- 0 0.0 8.0 13 13
r 1.146384 5 8 cbr 512 ------- 0 0.0 8.0 9 9
r 1.148192 1 2 cbr 512 ------- 0 0.0 8.0 12 12
+ 1.148192 2 5 cbr 512 ------- 0 0.0 8.0 12 12
- 1.148192 2 5 cbr 512 ------- 0 0.0 8.0 12 12
+ 1.15 0 1 cbr 512 ------- 0 0.0 8.0 15 15
- 1.15 0 1 cbr 512 ------- 0 0.0 8.0 15 15
r 1.152288 2 5 cbr 512 ------- 0 0.0 8.0 11 11
+ 1.152288 5 8 cbr 512 ------- 0 0.0 8.0 11 11
- 1.152288 5 8 cbr 512 ------- 0 0.0 8.0 11 11
r 1.154096 0 1 cbr 512 ------- 0 0.0 8.0 14 14
+ 1.154096 1 2 cbr 512 ------- 0 0.0 8.0 14 14
- 1.154096 1 2 cbr 512 ------- 0 0.0 8.0 14 14
r 1.156384 5 8 cbr 512 ------- 0 0.0 8.0 10 10
r 1.158192 1 2 cbr 512 ------- 0 0.0 8.0 13 13
+ 1.158192 2 5 cbr 512 ------- 0 0.0 8.0 13 13
- 1.158192 2 5 cbr 512 ------- 0 0.0 8.0 13 13
+ 1.16 0 1 cbr 512 ------- 0 0.0 8.0 16 16
- 1.16 0 1 cbr 512 ------- 0 0.0 8.0 16 16
r 1.162288 2 5 cbr 512 ------- 0 0.0 8.0 12 12
+ 1.162288 5 8 cbr 512 ------- 0 0.0 8.0 12 12
- 1.162288 5 8 cbr 512 ------- 0 0.0 8.0 12 12
r 1.164096 0 1 cbr 512 ------- 0 0.0 8.0 15 15
+ 1.164096 1 2 cbr 512 ------- 0 0.0 8.0 15 15
- 1.164096 1 2 cbr 512 ------- 0 0.0 8.0 15 15
r 1.166384 5 8 cbr 512 ------- 0 0.0 8.0 11 11
r 1.168192 1 2 cbr 512 ------- 0 0.0 8.0 14 14
+ 1.168192 2 5 cbr 512 ------- 0 0.0 8.0 14 14
- 1.168192 2 5 cbr 512 ------- 0 0.0 8.0 14 14
+ 1.17 0 1 cbr 512 ------- 0 0.0 8.0 17 17
- 1.17 0 1 cbr 512 ------- 0 0.0 8.0 17 17
r 1.172288 2 5 cbr 512 ------- 0 0.0 8.0 13 13
+ 1.172288 5 8 cbr 512 ------- 0 0.0 8.0 13 13
- 1.172288 5 8 cbr 512 ------- 0 0.0 8.0 13 13
r 1.174096 0 1 cbr 512 ------- 0 0.0 8.0 16 16
+ 1.174096 1 2 cbr 512 ------- 0 0.0 8.0 16 16
- 1.174096 1 2 cbr 512 ------- 0 0.0 8.0 16 16
r 1.176384 5 8 cbr 512 ------- 0 0.0 8.0 12 12
r 1.178192 1 2 cbr 512 ------- 0 0.0 8.0 15 15
+ 1.178192 2 5 cbr 512 ------- 0 0.0 8.0 15 15
- 1.178192 2 5 cbr 512 ------- 0 0.0 8.0 15 15
+ 1.18 0 1 cbr 512 ------- 0 0.0 8.0 18 18
- 1.18 0 1 cbr 512 ------- 0 0.0 8.0 18 18
r 1.182288 2 5 cbr 512 ------- 0 0.0 8.0 14 14
+ 1.182288 5 8 cbr 512 ------- 0 0.0 8.0 14 14
- 1.182288 5 8 cbr 512 ------- 0 0.0 8.0 14 14
r 1.184096 0 1 cbr 512 ------- 0 0.0 8.0 17 17
+ 1.184096 1 2 cbr 512 ------- 0 0.0 8.0 17 17
- 1.184096 1 2 cbr 512 ------- 0 0.0 8.0 17 17
r 1.186384 5 8 cbr 512 ------- 0 0.0 8.0 13 13
r 1.188192 1 2 cbr 512 ------- 0 0.0 8.0 16 16
+ 1.188192 2 5 cbr 512 ------- 0 0.0 8.0 16 16
- 1.188192 2 5 cbr 512 ------- 0 0.0 8.0 16 16
+ 1.19 0 1 cbr 512 ------- 0 0.0 8.0 19 19
- 1.19 0 1 cbr 512 ------- 0 0.0 8.0 19 19
r 1.192288 2 5 cbr 512 ------- 0 0.0 8.0 15 15
+ 1.192288 5 8 cbr 512 ------- 0 0.0 8.0 15 15
- 1.192288 5 8 cbr 512 ------- 0 0.0 8.0 15 15
r 1.194096 0 1 cbr 512 ------- 0 0.0 8.0 18 18
+ 1.194096 1 2 cbr 512 ------- 0 0.0 8.0 18 18
- 1.194096 1 2 cbr 512 ------- 0 0.0 8.0 18 18
r 1.196384 5 8 cbr 512 ------- 0 0.0 8.0 14 14
r 1.198192 1 2 cbr 512 ------- 0 0.0 8.0 17 17
+ 1.198192 2 5 cbr 512 ------- 0 0.0 8.0 17 17
- 1.198192 2 5 cbr 512 ------- 0 0.0 8.0 17 17
+ 1.2 2 1 tcp 40 ------- 0 2.0 6.0 0 20
- 1.2 2 1 tcp 40 ------- 0 2.0 6.0 0 20
+ 1.2 0 1 cbr 512 ------- 0 0.0 8.0 20 21
- 1.2 0 1 cbr 512 ------- 0 0.0 8.0 20 21
r 1.202288 2 5 cbr 512 ------- 0 0.0 8.0 16 16
+ 1.202288 5 8 cbr 512 ------- 0 0.0 8.0 16 16
- 1.202288 5 8 cbr 512 ------- 0 0.0 8.0 16 16
r 1.204096 0 1 cbr 512 ------- 0 0.0 8.0 19 19
+ 1.204096 1 2 cbr 512 ------- 0 0.0 8.0 19 19
- 1.204096 1 2 cbr 512 ------- 0 0.0 8.0 19 19
r 1.206384 5 8 cbr 512 ------- 0 0.0 8.0 15 15
r 1.208192 1 2 cbr 512 ------- 0 0.0 8.0 18 18
+ 1.208192 2 5 cbr 512 ------- 0 0.0 8.0 18 18
- 1.208192 2 5 cbr 512 ------- 0 0.0 8.0 18 18
+ 1.21 0 1 cbr 512 ------- 0 0.0 8.0 21 22
- 1.21 0 1 cbr 512 ------- 0 0.0 8.0 21 22
r 1.21032 2 1 tcp 40 ------- 0 2.0 6.0 0 20
+ 1.21032 1 0 tcp 40 ------- 0 2.0 6.0 0 20
- 1.21032 1 0 tcp 40 ------- 0 2.0 6.0 0 20
r 1.212288 2 5 cbr 512 ------- 0 0.0 8.0 17 17
+ 1.212288 5 8 cbr 512 ------- 0 0.0 8.0 17 17
- 1.212288 5 8 cbr 512 ------- 0 0.0 8.0 17 17
r 1.214096 0 1 cbr 512 ------- 0 0.0 8.0 20 21
+ 1.214096 1 2 cbr 512 ------- 0 0.0 8.0 20 21
- 1.214096 1 2 cbr 512 ------- 0 0.0 8.0 20 21
r 1.216384 5 8 cbr 512 ------- 0 0.0 8.0 16 16
r 1.218192 1 2 cbr 512 ------- 0 0.0 8.0 19 19
+ 1.218192 2 5 cbr 512 ------- 0 0.0 8.0 19 19
- 1.218192 2 5 cbr 512 ------- 0 0.0 8.0 19 19
+ 1.22 0 1 cbr 512 ------- 0 0.0 8.0 22 23
- 1.22 0 1 cbr 512 ------- 0 0.0 8.0 22 23
r 1.22064 1 0 tcp 40 ------- 0 2.0 6.0 0 20
+ 1.22064 0 3 tcp 40 ------- 0 2.0 6.0 0 20
- 1.22064 0 3 tcp 40 ------- 0 2.0 6.0 0 20
r 1.222288 2 5 cbr 512 ------- 0 0.0 8.0 18 18
+ 1.222288 5 8 cbr 512 ------- 0 0.0 8.0 18 18
- 1.222288 5 8 cbr 512 ------- 0 0.0 8.0 18 18
r 1.224096 0 1 cbr 512 ------- 0 0.0 8.0 21 22
+ 1.224096 1 2 cbr 512 ------- 0 0.0 8.0 21 22
- 1.224096 1 2 cbr 512 ------- 0 0.0 8.0 21 22
r 1.226384 5 8 cbr 512 ------- 0 0.0 8.0 17 17
r 1.228192 1 2 cbr 512 ------- 0 0.0 8.0 20 21
+ 1.228192 2 5 cbr 512 ------- 0 0.0 8.0 20 21
- 1.228192 2 5 cbr 512 ------- 0 0.0 8.0 20 21
+ 1.23 0 1 cbr 512 ------- 0 0.0 8.0 23 24
- 1.23 0 1 cbr 512 ------- 0 0.0 8.0 23 24
r 1.23096 0 3 tcp 40 ------- 0 2.0 6.0 0 20
+ 1.23096 3 6 tcp 40 ------- 0 2.0 6.0 0 20
- 1.23096 3 6 tcp 40 ------- 0 2.0 6.0 0 20
r 1.232288 2 5 cbr 512 ------- 0 0.0 8.0 19 19
+ 1.232288 5 8 cbr 512 ------- 0 0.0 8.0 19 19
- 1.232288 5 8 cbr 512 ------- 0 0.0 8.0 19 19
r 1.234096 0 1 cbr 512 ------- 0 0.0 8.0 22 23
+ 1.234096 1 2 cbr 512 ------- 0 0.0 8.0 22 23
- 1.234096 1 2 cbr 512 ------- 0 0.0 8.0 22 23
r 1.236384 5 8 cbr 512 ------- 0 0.0 8.0 18 18
r 1.238192 1 2 cbr 512 ------- 0 0.0 8.0 21 22
+ 1.238192 2 5 cbr 512 ------- 0 0.0 8.0 21 22
- 1.238192 2 5 cbr 512 ------- 0 0.0 8.0 21 22
+ 1.24 0 1 cbr 512 ------- 0 0.0 8.0 24 25
- 1.24 0 1 cbr 512 ------- 0 0.0 8.0 24 25
r 1.24128 3 6 tcp 40 ------- 0 2.0 6.0 0 20
+ 1.24128 6 3 ack 40 ------- 0 6.0 2.0 0 26
- 1.24128 6 3 ack 40 ------- 0 6.0 2.0 0 26
r 1.242288 2 5 cbr 512 ------- 0 0.0 8.0 20 21
+ 1.242288 5 8 cbr 512 ------- 0 0.0 8.0 20 21
- 1.242288 5 8 cbr 512 ------- 0 0.0 8.0 20 21
r 1.244096 0 1 cbr 512 ------- 0 0.0 8.0 23 24
+ 1.244096 1 2 cbr 512 ------- 0 0.0 8.0 23 24
- 1.244096 1 2 cbr 512 ------- 0 0.0 8.0 23 24
r 1.246384 5 8 cbr 512 ------- 0 0.0 8.0 19 19
r 1.248192 1 2 cbr 512 ------- 0 0.0 8.0 22 23
+ 1.248192 2 5 cbr 512 ------- 0 0.0 8.0 22 23
- 1.248192 2 5 cbr 512 ------- 0 0.0 8.0 22 23
+ 1.25 0 1 cbr 512 ------- 0 0.0 8.0 25 27
- 1.25 0 1 cbr 512 ------- 0 0.0 8.0 25 27
r 1.2516 6 3 ack 40 ------- 0 6.0 2.0 0 26
+ 1.2516 3 0 ack 40 ------- 0 6.0 2.0 0 26
- 1.2516 3 0 ack 40 ------- 0 6.0 2.0 0 26
r 1.252288 2 5 cbr 512 ------- 0 0.0 8.0 21 22
+ 1.252288 5 8 cbr 512 ------- 0 0.0 8.0 21 22
- 1.252288 5 8 cbr 512 ------- 0 0.0 8.0 21 22
r 1.254096 0 1 cbr 512 ------- 0 0.0 8.0 24 25
+ 1.254096 1 2 cbr 512 ------- 0 0.0 8.0 24 25
- 1.254096 1 2 cbr 512 ------- 0 0.0 8.0 24 25
r 1.256384 5 8 cbr 512 ------- 0 0.0 8.0 20 21
r 1.258192 1 2 cbr 512 ------- 0 0.0 8.0 23 24
+ 1.258192 2 5 cbr 512 ------- 0 0.0 8.0 23 24
- 1.258192 2 5 cbr 512 ------- 0 0.0 8.0 23 24
+ 1.26 0 1 cbr 512 ------- 0 0.0 8.0 26 28
- 1.26 0 1 cbr 512 ------- 0 0.0 8.0 26 28
r 1.26192 3 0 ack 40 ------- 0 6.0 2.0 0 26
+ 1.26192 0 1 ack 40 ------- 0 6.0 2.0 0 26
r 1.262288 2 5 cbr 512 ------- 0 0.0 8.0 22 23
+ 1.262288 5 8 cbr 512 ------- 0 0.0 8.0 22 23
- 1.262288 5 8 cbr 512 ------- 0 0.0 8.0 22 23
r 1.264096 0 1 cbr 512 ------- 0 0.0 8.0 25 27
+ 1.264096 1 2 cbr 512 ------- 0 0.0 8.0 25 27
- 1.264096 1 2 cbr 512 ------- 0 0.0 8.0 25 27
- 1.264096 0 1 ack 40 ------- 0 6.0 2.0 0 26
r 1.266384 5 8 cbr 512 ------- 0 0.0 8.0 21 22
r 1.268192 1 2 cbr 512 ------- 0 0.0 8.0 24 25
+ 1.268192 2 5 cbr 512 ------- 0 0.0 8.0 24 25
- 1.268192 2 5 cbr 512 ------- 0 0.0 8.0 24 25
+ 1.27 0 1 cbr 512 ------- 0 0.0 8.0 27 29
- 1.27 0 1 cbr 512 ------- 0 0.0 8.0 27 29
r 1.272288 2 5 cbr 512 ------- 0 0.0 8.0 23 24
+ 1.272288 5 8 cbr 512 ------- 0 0.0 8.0 23 24
- 1.272288 5 8 cbr 512 ------- 0 0.0 8.0 23 24
r 1.274096 0 1 cbr 512 ------- 0 0.0 8.0 26 28
+ 1.274096 1 2 cbr 512 ------- 0 0.0 8.0 26 28
- 1.274096 1 2 cbr 512 ------- 0 0.0 8.0 26 28
r 1.274416 0 1 ack 40 ------- 0 6.0 2.0 0 26
+ 1.274416 1 2 ack 40 ------- 0 6.0 2.0 0 26
r 1.276384 5 8 cbr 512 ------- 0 0.0 8.0 22 23
r 1.278192 1 2 cbr 512 ------- 0 0.0 8.0 25 27
+ 1.278192 2 5 cbr 512 ------- 0 0.0 8.0 25 27
- 1.278192 2 5 cbr 512 ------- 0 0.0 8.0 25 27
- 1.278192 1 2 ack 40 ------- 0 6.0 2.0 0 26
+ 1.28 0 1 cbr 512 ------- 0 0.0 8.0 28 30
- 1.28 0 1 cbr 512 ------- 0 0.0 8.0 28 30
r 1.282288 2 5 cbr 512 ------- 0 0.0 8.0 24 25
+ 1.282288 5 8 cbr 512 ------- 0 0.0 8.0 24 25
- 1.282288 5 8 cbr 512 ------- 0 0.0 8.0 24 25
r 1.284096 0 1 cbr 512 ------- 0 0.0 8.0 27 29
+ 1.284096 1 2 cbr 512 ------- 0 0.0 8.0 27 29
- 1.284096 1 2 cbr 512 ------- 0 0.0 8.0 27 29
r 1.286384 5 8 cbr 512 ------- 0 0.0 8.0 23 24
r 1.288192 1 2 cbr 512 ------- 0 0.0 8.0 26 28
+ 1.288192 2 5 cbr 512 ------- 0 0.0 8.0 26 28
- 1.288192 2 5 cbr 512 ------- 0 0.0 8.0 26 28
r 1.288512 1 2 ack 40 ------- 0 6.0 2.0 0 26
+ 1.288512 2 1 tcp 1040 ------- 0 2.0 6.0 1 31
- 1.288512 2 1 tcp 1040 ------- 0 2.0 6.0 1 31
+ 1.288512 2 1 tcp 1040 ------- 0 2.0 6.0 2 32
+ 1.29 0 1 cbr 512 ------- 0 0.0 8.0 29 33
- 1.29 0 1 cbr 512 ------- 0 0.0 8.0 29 33
r 1.292288 2 5 cbr 512 ------- 0 0.0 8.0 25 27
+ 1.292288 5 8 cbr 512 ------- 0 0.0 8.0 25 27
- 1.292288 5 8 cbr 512 ------- 0 0.0 8.0 25 27
r 1.294096 0 1 cbr 512 ------- 0 0.0 8.0 28 30
+ 1.294096 1 2 cbr 512 ------- 0 0.0 8.0 28 30
- 1.294096 1 2 cbr 512 ------- 0 0.0 8.0 28 30
r 1.296384 5 8 cbr 512 ------- 0 0.0 8.0 24 25
- 1.296832 2 1 tcp 1040 ------- 0 2.0 6.0 2 32
r 1.298192 1 2 cbr 512 ------- 0 0.0 8.0 27 29
+ 1.298192 2 5 cbr 512 ------- 0 0.0 8.0 27 29
- 1.298192 2 5 cbr 512 ------- 0 0.0 8.0 27 29
+ 1.3 0 1 cbr 512 ------- 0 0.0 8.0 30 34
- 1.3 0 1 cbr 512 ------- 0 0.0 8.0 30 34
r 1.302288 2 5 cbr 512 ------- 0 0.0 8.0 26 28
+ 1.302288 5 8 cbr 512 ------- 0 0.0 8.0 26 28
- 1.302288 5 8 cbr 512 ------- 0 0.0 8.0 26 28
r 1.304096 0 1 cbr 512 ------- 0 0.0 8.0 29 33
+ 1.304096 1 2 cbr 512 ------- 0 0.0 8.0 29 33
- 1.304096 1 2 cbr 512 ------- 0 0.0 8.0 29 33
r 1.306384 5 8 cbr 512 ------- 0 0.0 8.0 25 27
r 1.306832 2 1 tcp 1040 ------- 0 2.0 6.0 1 31
+ 1.306832 1 0 tcp 1040 ------- 0 2.0 6.0 1 31
- 1.306832 1 0 tcp 1040 ------- 0 2.0 6.0 1 31
r 1.308192 1 2 cbr 512 ------- 0 0.0 8.0 28 30
+ 1.308192 2 5 cbr 512 ------- 0 0.0 8.0 28 30
- 1.308192 2 5 cbr 512 ------- 0 0.0 8.0 28 30
+ 1.31 0 1 cbr 512 ------- 0 0.0 8.0 31 35
- 1.31 0 1 cbr 512 ------- 0 0.0 8.0 31 35
r 1.312288 2 5 cbr 512 ------- 0 0.0 8.0 27 29
+ 1.312288 5 8 cbr 512 ------- 0 0.0 8.0 27 29
- 1.312288 5 8 cbr 512 ------- 0 0.0 8.0 27 29
r 1.314096 0 1 cbr 512 ------- 0 0.0 8.0 30 34
+ 1.314096 1 2 cbr 512 ------- 0 0.0 8.0 30 34
- 1.314096 1 2 cbr 512 ------- 0 0.0 8.0 30 34
r 1.315152 2 1 tcp 1040 ------- 0 2.0 6.0 2 32
+ 1.315152 1 0 tcp 1040 ------- 0 2.0 6.0 2 32
- 1.315152 1 0 tcp 1040 ------- 0 2.0 6.0 2 32
r 1.316384 5 8 cbr 512 ------- 0 0.0 8.0 26 28
r 1.318192 1 2 cbr 512 ------- 0 0.0 8.0 29 33
+ 1.318192 2 5 cbr 512 ------- 0 0.0 8.0 29 33
- 1.318192 2 5 cbr 512 ------- 0 0.0 8.0 29 33
+ 1.32 0 1 cbr 512 ------- 0 0.0 8.0 32 36
- 1.32 0 1 cbr 512 ------- 0 0.0 8.0 32 36
r 1.322288 2 5 cbr 512 ------- 0 0.0 8.0 28 30
+ 1.322288 5 8 cbr 512 ------- 0 0.0 8.0 28 30
- 1.322288 5 8 cbr 512 ------- 0 0.0 8.0 28 30
r 1.324096 0 1 cbr 512 ------- 0 0.0 8.0 31 35
+ 1.324096 1 2 cbr 512 ------- 0 0.0 8.0 31 35
- 1.324096 1 2 cbr 512 ------- 0 0.0 8.0 31 35
r 1.325152 1 0 tcp 1040 ------- 0 2.0 6.0 1 31
+ 1.325152 0 3 tcp 1040 ------- 0 2.0 6.0 1 31
- 1.325152 0 3 tcp 1040 ------- 0 2.0 6.0 1 31
r 1.326384 5 8 cbr 512 ------- 0 0.0 8.0 27 29
r 1.328192 1 2 cbr 512 ------- 0 0.0 8.0 30 34
+ 1.328192 2 5 cbr 512 ------- 0 0.0 8.0 30 34
- 1.328192 2 5 cbr 512 ------- 0 0.0 8.0 30 34
+ 1.33 0 1 cbr 512 ------- 0 0.0 8.0 33 37
- 1.33 0 1 cbr 512 ------- 0 0.0 8.0 33 37
r 1.332288 2 5 cbr 512 ------- 0 0.0 8.0 29 33
+ 1.332288 5 8 cbr 512 ------- 0 0.0 8.0 29 33
- 1.332288 5 8 cbr 512 ------- 0 0.0 8.0 29 33
r 1.333472 1 0 tcp 1040 ------- 0 2.0 6.0 2 32
+ 1.333472 0 3 tcp 1040 ------- 0 2.0 6.0 2 32
- 1.333472 0 3 tcp 1040 ------- 0 2.0 6.0 2 32
r 1.334096 0 1 cbr 512 ------- 0 0.0 8.0 32 36
+ 1.334096 1 2 cbr 512 ------- 0 0.0 8.0 32 36
- 1.334096 1 2 cbr 512 ------- 0 0.0 8.0 32 36
r 1.336384 5 8 cbr 512 ------- 0 0.0 8.0 28 30
r 1.338192 1 2 cbr 512 ------- 0 0.0 8.0 31 35
+ 1.338192 2 5 cbr 512 ------- 0 0.0 8.0 31 35
- 1.338192 2 5 cbr 512 ------- 0 0.0 8.0 31 35
+ 1.34 0 1 cbr 512 ------- 0 0.0 8.0 34 38
- 1.34 0 1 cbr 512 ------- 0 0.0 8.0 34 38
r 1.342288 2 5 cbr 512 ------- 0 0.0 8.0 30 34
+ 1.342288 5 8 cbr 512 ------- 0 0.0 8.0 30 34
- 1.342288 5 8 cbr 512 ------- 0 0.0 8.0 30 34
r 1.343472 0 3 tcp 1040 ------- 0 2.0 6.0 1 31
+ 1.343472 3 6 tcp 1040 ------- 0 2.0 6.0 1 31
- 1.343472 3 6 tcp 1040 ------- 0 2.0 6.0 1 31
r 1.344096 0 1 cbr 512 ------- 0 0.0 8.0 33 37
+ 1.344096 1 2 cbr 512 ------- 0 0.0 8.0 33 37
- 1.344096 1 2 cbr 512 ------- 0 0.0 8.0 33 37
r 1.346384 5 8 cbr 512 ------- 0 0.0 8.0 29 33
r 1.348192 1 2 cbr 512 ------- 0 0.0 8.0 32 36
+ 1.348192 2 5 cbr 512 ------- 0 0.0 8.0 32 36
- 1.348192 2 5 cbr 512 ------- 0 0.0 8.0 32 36
+ 1.35 0 1 cbr 512 ------- 0 0.0 8.0 35 39
- 1.35 0 1 cbr 512 ------- 0 0.0 8.0 35 39
r 1.351792 0 3 tcp 1040 ------- 0 2.0 6.0 2 32
+ 1.351792 3 6 tcp 1040 ------- 0 2.0 6.0 2 32
- 1.351792 3 6 tcp 1040 ------- 0 2.0 6.0 2 32
r 1.352288 2 5 cbr 512 ------- 0 0.0 8.0 31 35
+ 1.352288 5 8 cbr 512 ------- 0 0.0 8.0 31 35
- 1.352288 5 8 cbr 512 ------- 0 0.0 8.0 31 35
r 1.354096 0 1 cbr 512 ------- 0 0.0 8.0 34 38
+ 1.354096 1 2 cbr 512 ------- 0 0.0 8.0 34 38
- 1.354096 1 2 cbr 512 ------- 0 0.0 8.0 34 38
r 1.356384 5 8 cbr 512 ------- 0 0.0 8.0 30 34
r 1.358192 1 2 cbr 512 ------- 0 0.0 8.0 33 37
+ 1.358192 2 5 cbr 512 ------- 0 0.0 8.0 33 37
- 1.358192 2 5 cbr 512 ------- 0 0.0 8.0 33 37
+ 1.36 0 1 cbr 512 ------- 0 0.0 8.0 36 40
- 1.36 0 1 cbr 512 ------- 0 0.0 8.0 36 40
r 1.361792 3 6 tcp 1040 ------- 0 2.0 6.0 1 31
+ 1.361792 6 3 ack 40 ------- 0 6.0 2.0 1 41
- 1.361792 6 3 ack 40 ------- 0 6.0 2.0 1 41
r 1.362288 2 5 cbr 512 ------- 0 0.0 8.0 32 36
+ 1.362288 5 8 cbr 512 ------- 0 0.0 8.0 32 36
- 1.362288 5 8 cbr 512 ------- 0 0.0 8.0 32 36
r 1.364096 0 1 cbr 512 ------- 0 0.0 8.0 35 39
+ 1.364096 1 2 cbr 512 ------- 0 0.0 8.0 35 39
- 1.364096 1 2 cbr 512 ------- 0 0.0 8.0 35 39
r 1.366384 5 8 cbr 512 ------- 0 0.0 8.0 31 35
r 1.368192 1 2 cbr 512 ------- 0 0.0 8.0 34 38
+ 1.368192 2 5 cbr 512 ------- 0 0.0 8.0 34 38
- 1.368192 2 5 cbr 512 ------- 0 0.0 8.0 34 38
+ 1.37 0 1 cbr 512 ------- 0 0.0 8.0 37 42
- 1.37 0 1 cbr 512 ------- 0 0.0 8.0 37 42
r 1.370112 3 6 tcp 1040 ------- 0 2.0 6.0 2 32
+ 1.370112 6 3 ack 40 ------- 0 6.0 2.0 2 43
- 1.370112 6 3 ack 40 ------- 0 6.0 2.0 2 43
r 1.372112 6 3 ack 40 ------- 0 6.0 2.0 1 41
+ 1.372112 3 0 ack 40 ------- 0 6.0 2.0 1 41
- 1.372112 3 0 ack 40 ------- 0 6.0 2.0 1 41
r 1.372288 2 5 cbr 512 ------- 0 0.0 8.0 33 37
+ 1.372288 5 8 cbr 512 ------- 0 0.0 8.0 33 37
- 1.372288 5 8 cbr 512 ------- 0 0.0 8.0 33 37
r 1.374096 0 1 cbr 512 ------- 0 0.0 8.0 36 40
+ 1.374096 1 2 cbr 512 ------- 0 0.0 8.0 36 40
- 1.374096 1 2 cbr 512 ------- 0 0.0 8.0 36 40
r 1.376384 5 8 cbr 512 ------- 0 0.0 8.0 32 36
r 1.378192 1 2 cbr 512 ------- 0 0.0 8.0 35 39
+ 1.378192 2 5 cbr 512 ------- 0 0.0 8.0 35 39
- 1.378192 2 5 cbr 512 ------- 0 0.0 8.0 35 39
+ 1.38 0 1 cbr 512 ------- 0 0.0 8.0 38 44
- 1.38 0 1 cbr 512 ------- 0 0.0 8.0 38 44
r 1.380432 6 3 ack 40 ------- 0 6.0 2.0 2 43
+ 1.380432 3 0 ack 40 ------- 0 6.0 2.0 2 43
- 1.380432 3 0 ack 40 ------- 0 6.0 2.0 2 43
r 1.382288 2 5 cbr 512 ------- 0 0.0 8.0 34 38
+ 1.382288 5 8 cbr 512 ------- 0 0.0 8.0 34 38
- 1.382288 5 8 cbr 512 ------- 0 0.0 8.0 34 38
r 1.382432 3 0 ack 40 ------- 0 6.0 2.0 1 41
+ 1.382432 0 1 ack 40 ------- 0 6.0 2.0 1 41
r 1.384096 0 1 cbr 512 ------- 0 0.0 8.0 37 42
+ 1.384096 1 2 cbr 512 ------- 0 0.0 8.0 37 42
- 1.384096 1 2 cbr 512 ------- 0 0.0 8.0 37 42
- 1.384096 0 1 ack 40 ------- 0 6.0 2.0 1 41
r 1.386384 5 8 cbr 512 ------- 0 0.0 8.0 33 37
r 1.388192 1 2 cbr 512 ------- 0 0.0 8.0 36 40
+ 1.388192 2 5 cbr 512 ------- 0 0.0 8.0 36 40
- 1.388192 2 5 cbr 512 ------- 0 0.0 8.0 36 40
+ 1.39 0 1 cbr 512 ------- 0 0.0 8.0 39 45
- 1.39 0 1 cbr 512 ------- 0 0.0 8.0 39 45
r 1.390752 3 0 ack 40 ------- 0 6.0 2.0 2 43
+ 1.390752 0 1 ack 40 ------- 0 6.0 2.0 2 43
r 1.392288 2 5 cbr 512 ------- 0 0.0 8.0 35 39
+ 1.392288 5 8 cbr 512 ------- 0 0.0 8.0 35 39
- 1.392288 5 8 cbr 512 ------- 0 0.0 8.0 35 39
r 1.394096 0 1 cbr 512 ------- 0 0.0 8.0 38 44
+ 1.394096 1 2 cbr 512 ------- 0 0.0 8.0 38 44
- 1.394096 1 2 cbr 512 ------- 0 0.0 8.0 38 44
- 1.394096 0 1 ack 40 ------- 0 6.0 2.0 2 43
r 1.394416 0 1 ack 40 ------- 0 6.0 2.0 1 41
+ 1.394416 1 2 ack 40 ------- 0 6.0 2.0 1 41
r 1.396384 5 8 cbr 512 ------- 0 0.0 8.0 34 38
r 1.398192 1 2 cbr 512 ------- 0 0.0 8.0 37 42
+ 1.398192 2 5 cbr 512 ------- 0 0.0 8.0 37 42
- 1.398192 2 5 cbr 512 ------- 0 0.0 8.0 37 42
- 1.398192 1 2 ack 40 ------- 0 6.0 2.0 1 41
+ 1.4 0 1 cbr 512 ------- 0 0.0 8.0 40 46
- 1.4 0 1 cbr 512 ------- 0 0.0 8.0 40 46
r 1.402288 2 5 cbr 512 ------- 0 0.0 8.0 36 40
+ 1.402288 5 8 cbr 512 ------- 0 0.0 8.0 36 40
- 1.402288 5 8 cbr 512 ------- 0 0.0 8.0 36 40
r 1.404096 0 1 cbr 512 ------- 0 0.0 8.0 39 45
+ 1.404096 1 2 cbr 512 ------- 0 0.0 8.0 39 45
- 1.404096 1 2 cbr 512 ------- 0 0.0 8.0 39 45
r 1.404416 0 1 ack 40 ------- 0 6.0 2.0 2 43
+ 1.404416 1 2 ack 40 ------- 0 6.0 2.0 2 43
r 1.406384 5 8 cbr 512 ------- 0 0.0 8.0 35 39
r 1.408192 1 2 cbr 512 ------- 0 0.0 8.0 38 44
+ 1.408192 2 5 cbr 512 ------- 0 0.0 8.0 38 44
- 1.408192 2 5 cbr 512 ------- 0 0.0 8.0 38 44
- 1.408192 1 2 ack 40 ------- 0 6.0 2.0 2 43
r 1.408512 1 2 ack 40 ------- 0 6.0 2.0 1 41
+ 1.408512 2 1 tcp 1040 ------- 0 2.0 6.0 3 47
- 1.408512 2 1 tcp 1040 ------- 0 2.0 6.0 3 47
+ 1.408512 2 1 tcp 1040 ------- 0 2.0 6.0 4 48
+ 1.41 0 1 cbr 512 ------- 0 0.0 8.0 41 49
- 1.41 0 1 cbr 512 ------- 0 0.0 8.0 41 49
r 1.412288 2 5 cbr 512 ------- 0 0.0 8.0 37 42
+ 1.412288 5 8 cbr 512 ------- 0 0.0 8.0 37 42
- 1.412288 5 8 cbr 512 ------- 0 0.0 8.0 37 42
r 1.414096 0 1 cbr 512 ------- 0 0.0 8.0 40 46
+ 1.414096 1 2 cbr 512 ------- 0 0.0 8.0 40 46
- 1.414096 1 2 cbr 512 ------- 0 0.0 8.0 40 46
r 1.416384 5 8 cbr 512 ------- 0 0.0 8.0 36 40
- 1.416832 2 1 tcp 1040 ------- 0 2.0 6.0 4 48
r 1.418192 1 2 cbr 512 ------- 0 0.0 8.0 39 45
+ 1.418192 2 5 cbr 512 ------- 0 0.0 8.0 39 45
- 1.418192 2 5 cbr 512 ------- 0 0.0 8.0 39 45
r 1.418512 1 2 ack 40 ------- 0 6.0 2.0 2 43
+ 1.418512 2 1 tcp 1040 ------- 0 2.0 6.0 5 50
+ 1.418512 2 1 tcp 1040 ------- 0 2.0 6.0 6 51
+ 1.42 0 1 cbr 512 ------- 0 0.0 8.0 42 52
- 1.42 0 1 cbr 512 ------- 0 0.0 8.0 42 52
r 1.422288 2 5 cbr 512 ------- 0 0.0 8.0 38 44
+ 1.422288 5 8 cbr 512 ------- 0 0.0 8.0 38 44
- 1.422288 5 8 cbr 512 ------- 0 0.0 8.0 38 44
r 1.424096 0 1 cbr 512 ------- 0 0.0 8.0 41 49
+ 1.424096 1 2 cbr 512 ------- 0 0.0 8.0 41 49
- 1.424096 1 2 cbr 512 ------- 0 0.0 8.0 41 49
- 1.425152 2 1 tcp 1040 ------- 0 2.0 6.0 5 50
r 1.426384 5 8 cbr 512 ------- 0 0.0 8.0 37 42
r 1.426832 2 1 tcp 1040 ------- 0 2.0 6.0 3 47
+ 1.426832 1 0 tcp 1040 ------- 0 2.0 6.0 3 47
- 1.426832 1 0 tcp 1040 ------- 0 2.0 6.0 3 47
r 1.428192 1 2 cbr 512 ------- 0 0.0 8.0 40 46
+ 1.428192 2 5 cbr 512 ------- 0 0.0 8.0 40 46
- 1.428192 2 5 cbr 512 ------- 0 0.0 8.0 40 46
+ 1.43 0 1 cbr 512 ------- 0 0.0 8.0 43 53
- 1.43 0 1 cbr 512 ------- 0 0.0 8.0 43 53
r 1.432288 2 5 cbr 512 ------- 0 0.0 8.0 39 45
+ 1.432288 5 8 cbr 512 ------- 0 0.0 8.0 39 45
- 1.432288 5 8 cbr 512 ------- 0 0.0 8.0 39 45
- 1.433472 2 1 tcp 1040 ------- 0 2.0 6.0 6 51
r 1.434096 0 1 cbr 512 ------- 0 0.0 8.0 42 52
+ 1.434096 1 2 cbr 512 ------- 0 0.0 8.0 42 52
- 1.434096 1 2 cbr 512 ------- 0 0.0 8.0 42 52
r 1.435152 2 1 tcp 1040 ------- 0 2.0 6.0 4 48
+ 1.435152 1 0 tcp 1040 ------- 0 2.0 6.0 4 48
- 1.435152 1 0 tcp 1040 ------- 0 2.0 6.0 4 48
r 1.436384 5 8 cbr 512 ------- 0 0.0 8.0 38 44
r 1.438192 1 2 cbr 512 ------- 0 0.0 8.0 41 49
+ 1.438192 2 5 cbr 512 ------- 0 0.0 8.0 41 49
- 1.438192 2 5 cbr 512 ------- 0 0.0 8.0 41 49
+ 1.44 0 1 cbr 512 ------- 0 0.0 8.0 44 54
- 1.44 0 1 cbr 512 ------- 0 0.0 8.0 44 54
r 1.442288 2 5 cbr 512 ------- 0 0.0 8.0 40 46
+ 1.442288 5 8 cbr 512 ------- 0 0.0 8.0 40 46
- 1.442288 5 8 cbr 512 ------- 0 0.0 8.0 40 46
r 1.443472 2 1 tcp 1040 ------- 0 2.0 6.0 5 50
+ 1.443472 1 0 tcp 1040 ------- 0 2.0 6.0 5 50
- 1.443472 1 0 tcp 1040 ------- 0 2.0 6.0 5 50
r 1.444096 0 1 cbr 512 ------- 0 0.0 8.0 43 53
+ 1.444096 1 2 cbr 512 ------- 0 0.0 8.0 43 53
- 1.444096 1 2 cbr 512 ------- 0 0.0 8.0 43 53
r 1.445152 1 0 tcp 1040 ------- 0 2.0 6.0 3 47
+ 1.445152 0 3 tcp 1040 ------- 0 2.0 6.0 3 47
- 1.445152 0 3 tcp 1040 ------- 0 2.0 6.0 3 47
r 1.446384 5 8 cbr 512 ------- 0 0.0 8.0 39 45
r 1.448192 1 2 cbr 512 ------- 0 0.0 8.0 42 52
+ 1.448192 2 5 cbr 512 ------- 0 0.0 8.0 42 52
- 1.448192 2 5 cbr 512 ------- 0 0.0 8.0 42 52
+ 1.45 0 1 cbr 512 ------- 0 0.0 8.0 45 55
- 1.45 0 1 cbr 512 ------- 0 0.0 8.0 45 55
r 1.451792 2 1 tcp 1040 ------- 0 2.0 6.0 6 51
+ 1.451792 1 0 tcp 1040 ------- 0 2.0 6.0 6 51
- 1.451792 1 0 tcp 1040 ------- 0 2.0 6.0 6 51
r 1.452288 2 5 cbr 512 ------- 0 0.0 8.0 41 49
+ 1.452288 5 8 cbr 512 ------- 0 0.0 8.0 41 49
- 1.452288 5 8 cbr 512 ------- 0 0.0 8.0 41 49
r 1.453472 1 0 tcp 1040 ------- 0 2.0 6.0 4 48
+ 1.453472 0 3 tcp 1040 ------- 0 2.0 6.0 4 48
- 1.453472 0 3 tcp 1040 ------- 0 2.0 6.0 4 48
r 1.454096 0 1 cbr 512 ------- 0 0.0 8.0 44 54
+ 1.454096 1 2 cbr 512 ------- 0 0.0 8.0 44 54
- 1.454096 1 2 cbr 512 ------- 0 0.0 8.0 44 54
r 1.456384 5 8 cbr 512 ------- 0 0.0 8.0 40 46
r 1.458192 1 2 cbr 512 ------- 0 0.0 8.0 43 53
+ 1.458192 2 5 cbr 512 ------- 0 0.0 8.0 43 53
- 1.458192 2 5 cbr 512 ------- 0 0.0 8.0 43 53
+ 1.46 0 1 cbr 512 ------- 0 0.0 8.0 46 56
- 1.46 0 1 cbr 512 ------- 0 0.0 8.0 46 56
r 1.461792 1 0 tcp 1040 ------- 0 2.0 6.0 5 50
+ 1.461792 0 3 tcp 1040 ------- 0 2.0 6.0 5 50
- 1.461792 0 3 tcp 1040 ------- 0 2.0 6.0 5 50
r 1.462288 2 5 cbr 512 ------- 0 0.0 8.0 42 52
+ 1.462288 5 8 cbr 512 ------- 0 0.0 8.0 42 52
- 1.462288 5 8 cbr 512 ------- 0 0.0 8.0 42 52
r 1.463472 0 3 tcp 1040 ------- 0 2.0 6.0 3 47
+ 1.463472 3 6 tcp 1040 ------- 0 2.0 6.0 3 47
- 1.463472 3 6 tcp 1040 ------- 0 2.0 6.0 3 47
r 1.464096 0 1 cbr 512 ------- 0 0.0 8.0 45 55
+ 1.464096 1 2 cbr 512 ------- 0 0.0 8.0 45 55
- 1.464096 1 2 cbr 512 ------- 0 0.0 8.0 45 55
r 1.466384 5 8 cbr 512 ------- 0 0.0 8.0 41 49
r 1.468192 1 2 cbr 512 ------- 0 0.0 8.0 44 54
+ 1.468192 2 5 cbr 512 ------- 0 0.0 8.0 44 54
- 1.468192 2 5 cbr 512 ------- 0 0.0 8.0 44 54
+ 1.47 0 1 cbr 512 ------- 0 0.0 8.0 47 57
- 1.47 0 1 cbr 512 ------- 0 0.0 8.0 47 57
r 1.470112 1 0 tcp 1040 ------- 0 2.0 6.0 6 51
+ 1.470112 0 3 tcp 1040 ------- 0 2.0 6.0 6 51
- 1.470112 0 3 tcp 1040 ------- 0 2.0 6.0 6 51
r 1.471792 0 3 tcp 1040 ------- 0 2.0 6.0 4 48
+ 1.471792 3 6 tcp 1040 ------- 0 2.0 6.0 4 48
- 1.471792 3 6 tcp 1040 ------- 0 2.0 6.0 4 48
r 1.472288 2 5 cbr 512 ------- 0 0.0 8.0 43 53
+ 1.472288 5 8 cbr 512 ------- 0 0.0 8.0 43 53
- 1.472288 5 8 cbr 512 ------- 0 0.0 8.0 43 53
r 1.474096 0 1 cbr 512 ------- 0 0.0 8.0 46 56