V -t * -v 1.0a5 -a 0
A -t * -n 1 -p 0 -o 0x7fffffff -c 30 -a 1
A -t * -h 1 -m 1073741823 -s 0
n -t * -a 8 -s 8 -S UP -v circle -c black -i black
n -t * -a 4 -s 4 -S UP -v circle -c black -i black
n -t * -a 0 -s 0 -S UP -v circle -c black -i black
n -t * -a 5 -s 5 -S UP -v circle -c black -i black
n -t * -a 1 -s 1 -S UP -v circle -c black -i black
n -t * -a 6 -s 6 -S UP -v circle -c black -i black
n -t * -a 2 -s 2 -S UP -v circle -c black -i black
n -t * -a 7 -s 7 -S UP -v circle -c black -i black
n -t * -a 3 -s 3 -S UP -v circle -c black -i black
l -t * -s 0 -d 1 -S UP -r 1000000 -D 0.01 -c black
l -t * -s 1 -d 2 -S UP -r 1000000 -D 0.01 -c black
l -t * -s 3 -d 4 -S UP -r 1000000 -D 0.01 -c black
l -t * -s 4 -d 5 -S UP -r 1000000 -D 0.01 -c black
l -t * -s 6 -d 7 -S UP -r 1000000 -D 0.01 -c black
l -t * -s 7 -d 8 -S UP -r 1000000 -D 0.01 -c black
l -t * -s 0 -d 3 -S UP -r 1000000 -D 0.01 -c black
l -t * -s 3 -d 6 -S UP -r 1000000 -D 0.01 -c black
l -t * -s 1 -d 4 -S UP -r 1000000 -D 0.01 -c black
l -t * -s 4 -d 7 -S UP -r 1000000 -D 0.01 -c black
l -t * -s 2 -d 5 -S UP -r 1000000 -D 0.01 -c black
l -t * -s 5 -d 8 -S UP -r 1000000 -D 0.01 -c black
+ -t 1 -s 0 -d 1 -p cbr -e 512 -c 0 -i 0 -a 0 -x {0.0 8.0 0 ------- null}
- -t 1 -s 0 -d 1 -p cbr -e 512 -c 0 -i 0 -a 0 -x {0.0 8.0 0 ------- null}
h -t 1 -s 0 -d 1 -p cbr -e 512 -c 0 -i 0 -a 0 -x {0.0 8.0 -1 ------- null}
+ -t 1.01 -s 0 -d 1 -p cbr -e 512 -c 0 -i 1 -a 0 -x {0.0 8.0 1 ------- null}
- -t 1.01 -s 0 -d 1 -p cbr -e 512 -c 0 -i 1 -a 0 -x {0.0 8.0 1 ------- null}
h -t 1.01 -s 0 -d 1 -p cbr -e 512 -c 0 -i 1 -a 0 -x {0.0 8.0 -1 ------- null}
r -t 1.014096 -s 0 -d 1 -p cbr -e 512 -c 0 -i 0 -a 0 -x {0.0 8.0 0 ------- null}
+ -t 1.014096 -s 1 -d 2 -p cbr -e 512 -c 0 -i 0 -a 0 -x {0.0 8.0 0 ------- null}
- -t 1.014096 -s 1 -d 2 -p cbr -e 512 -c 0 -i 0 -a 0 -x {0.0 8.0 0 ------- null}
h -t 1.014096 -s 1 -d 2 -p cbr -e 512 -c 0 -i 0 -a 0 -x {0.0 8.0 -1 ------- null}
+ -t 1.02 -s 0 -d 1 -p cbr -e 512 -c 0 -i 2 -a 0 -x {0.0 8.0 2 ------- null}
- -t 1.02 -s 0 -d 1 -p cbr -e 512 -c 0 -i 2 -a 0 -x {0.0 8.0 2 ------- null}
h -t 1.02 -s 0 -d 1 -p cbr -e 512 -c 0 -i 2 -a 0 -x {0.0 8.0 -1 ------- null}
r -t 1.024096 -s 0 -d 1 -p cbr -e 512 -c 0 -i 1 -a 0 -x {0.0 8.0 1 ------- null}
+ -t 1.024096 -s 1 -d 2 -p cbr -e 512 -c 0 -i 1 -a 0 -x {0.0 8.0 1 ------- null}
- -t 1.024096 -s 1 -d 2 -p cbr -e 512 -c 0 -i 1 -a 0 -x {0.0 8.0 1 ------- null}
h -t 1.024096 -s 1 -d 2 -p cbr -e 512 -c 0 -i 1 -a 0 -x {0.0 8.0 -1 ------- null}
r -t 1.028192 -s 1 -d 2 -p cbr -e 512 -c 0 -i 0 -a 0 -x {0.0 8.0 0 ------- null}
+ -t 1.028192 -s 2 -d 5 -p cbr -e 512 -c 0 -i 0 -a 0 -x {0.0 8.0 0 ------- null}
- -t 1.028192 -s 2 -d 5 -p cbr -e 512 -c 0 -i 0 -a 0 -x {0.0 8.0 0 ------- null}
h -t 1.028192 -s 2 -d 5 -p cbr -e 512 -c 0 -i 0 -a 0 -x {0.0 8.0 -1 ------- null}
+ -t 1.03 -s 0 -d 1 -p cbr -e 512 -c 0 -i 3 -a 0 -x {0.0 8.0 3 ------- null}
- -t 1.03 -s 0 -d 1 -p cbr -e 512 -c 0 -i 3 -a 0 -x {0.0 8.0 3 ------- null}
h -t 1.03 -s 0 -d 1 -p cbr -e 512 -c 0 -i 3 -a 0 -x {0.0 8.0 -1 ------- null}
r -t 1.034096 -s 0 -d 1 -p cbr -e 512 -c 0 -i 2 -a 0 -x {0.0 8.0 2 ------- null}
+ -t 1.034096 -s 1 -d 2 -p cbr -e 512 -c 0 -i 2 -a 0 -x {0.0 8.0 2 ------- null}
- -t 1.034096 -s 1 -d 2 -p cbr -e 512 -c 0 -i 2 -a 0 -x {0.0 8.0 2 ------- null}
h -t 1.034096 -s 1 -d 2 -p cbr -e 512 -c 0 -i 2 -a 0 -x {0.0 8.0 -1 ------- null}
r -t 1.038192 -s 1 -d 2 -p cbr -e 512 -c 0 -i 1 -a 0 -x {0.0 8.0 1 ------- null}
+ -t 1.038192 -s 2 -d 5 -p cbr -e 512 -c 0 -i 1 -a 0 -x {0.0 8.0 1 ------- null}
- -t 1.038192 -s 2 -d 5 -p cbr -e 512 -c 0 -i 1 -a 0 -x {0.0 8.0 1 ------- null}
h -t 1.038192 -s 2 -d 5 -p cbr -e 512 -c 0 -i 1 -a 0 -x {0.0 8.0 -1 ------- null}
+ -t 1.04 -s 0 -d 1 -p cbr -e 512 -c 0 -i 4 -a 0 -x {0.0 8.0 4 ------- null}
- -t 1.04 -s 0 -d 1 -p cbr -e 512 -c 0 -i 4 -a 0 -x {0.0 8.0 4 ------- null}
h -t 1.04 -s 0 -d 1 -p cbr -e 512 -c 0 -i 4 -a 0 -x {0.0 8.0 -1 ------- null}
r -t 1.042288 -s 2 -d 5 -p cbr -e 512 -c 0 -i 0 -a 0 -x {0.0 8.0 0 ------- null}
+ -t 1.042288 -s 5 -d 8 -p cbr -e 512 -c 0 -i 0 -a 0 -x {0.0 8.0 0 ------- null}
- -t 1.042288 -s 5 -d 8 -p cbr -e 512 -c 0 -i 0 -a 0 -x {0.0 8.0 0 ------- null}
h -t 1.042288 -s 5 -d 8 -p cbr -e 512 -c 0 -i 0 -a 0 -x {0.0 8.0 -1 ------- null}
r -t 1.044096 -s 0 -d 1 -p cbr -e 512 -c 0 -i 3 -a 0 -x {0.0 8.0 3 ------- null}
+ -t 1.044096 -s 1 -d 2 -p cbr -e 512 -c 0 -i 3 -a 0 -x {0.0 8.0 3 ------- null}
- -t 1.044096 -s 1 -d 2 -p cbr -e 512 -c 0 -i 3 -a 0 -x {0.0 8.0 3 ------- null}
h -t 1.044096 -s 1 -d 2 -p cbr -e 512 -c 0 -i 3 -a 0 -x {0.0 8.0 -1 ------- null}
r -t 1.048192 -s 1 -d 2 -p cbr -e 512 -c 0 -i 2 -a 0 -x {0.0 8.0 2 ------- null}
+ -t 1.048192 -s 2 -d 5 -p cbr -e 512 -c 0 -i 2 -a 0 -x {0.0 8.0 2 ------- null}
- -t 1.048192 -s 2 -d 5 -p cbr -e 512 -c 0 -i 2 -a 0 -x {0.0 8.0 2 ------- null}
h -t 1.048192 -s 2 -d 5 -p cbr -e 512 -c 0 -i 2 -a 0 -x {0.0 8.0 -1 ------- null}
+ -t 1.05 -s 0 -d 1 -p cbr -e 512 -c 0 -i 5 -a 0 -x {0.0 8.0 5 ------- null}
- -t 1.05 -s 0 -d 1 -p cbr -e 512 -c 0 -i 5 -a 0 -x {0.0 8.0 5 ------- null}
h -t 1.05 -s 0 -d 1 -p cbr -e 512 -c 0 -i 5 -a 0 -x {0.0 8.0 -1 ------- null}
r -t 1.052288 -s 2 -d 5 -p cbr -e 512 -c 0 -i 1 -a 0 -x {0.0 8.0 1 ------- null}
+ -t 1.052288 -s 5 -d 8 -p cbr -e 512 -c 0 -i 1 -a 0 -x {0.0 8.0 1 ------- null}
- -t 1.052288 -s 5 -d 8 -p cbr -e 512 -c 0 -i 1 -a 0 -x {0.0 8.0 1 ------- null}
h -t 1.052288 -s 5 -d 8 -p cbr -e 512 -c 0 -i 1 -a 0 -x {0.0 8.0 -1 ------- null}
r -t 1.054096 -s 0 -d 1 -p cbr -e 512 -c 0 -i 4 -a 0 -x {0.0 8.0 4 ------- null}
+ -t 1.054096 -s 1 -d 2 -p cbr -e 512 -c 0 -i 4 -a 0 -x {0.0 8.0 4 ------- null}
- -t 1.054096 -s 1 -d 2 -p cbr -e 512 -c 0 -i 4 -a 0 -x {0.0 8.0 4 ------- null}
h -t 1.054096 -s 1 -d 2 -p cbr -e 512 -c 0 -i 4 -a 0 -x {0.0 8.0 -1 ------- null}
r -t 1.056384 -s 5 -d 8 -p cbr -e 512 -c 0 -i 0 -a 0 -x {0.0 8.0 0 ------- null}
r -t 1.058192 -s 1 -d 2 -p cbr -e 512 -c 0 -i 3 -a 0 -x {0.0 8.0 3 ------- null}
+ -t 1.058192 -s 2 -d 5 -p cbr -e 512 -c 0 -i 3 -a 0 -x {0.0 8.0 3 ------- null}
- -t 1.058192 -s 2 -d 5 -p cbr -e 512 -c 0 -i 3 -a 0 -x {0.0 8.0 3 ------- null}
h -t 1.058192 -s 2 -d 5 -p cbr -e 512 -c 0 -i 3 -a 0 -x {0.0 8.0 -1 ------- null}
+ -t 1.06 -s 0 -d 1 -p cbr -e 512 -c 0 -i 6 -a 0 -x {0.0 8.0 6 ------- null}
- -t 1.06 -s 0 -d 1 -p cbr -e 512 -c 0 -i 6 -a 0 -x {0.0 8.0 6 ------- null}
h -t 1.06 -s 0 -d 1 -p cbr -e 512 -c 0 -i 6 -a 0 -x {0.0 8.0 -1 ------- null}
r -t 1.062288 -s 2 -d 5 -p cbr -e 512 -c 0 -i 2 -a 0 -x {0.0 8.0 2 ------- null}
+ -t 1.062288 -s 5 -d 8 -p cbr -e 512 -c 0 -i 2 -a 0 -x {0.0 8.0 2 ------- null}
- -t 1.062288 -s 5 -d 8 -p cbr -e 512 -c 0 -i 2 -a 0 -x {0.0 8.0 2 ------- null}
h -t 1.062288 -s 5 -d 8 -p cbr -e 512 -c 0 -i 2 -a 0 -x {0.0 8.0 -1 ------- null}
r -t 1.064096 -s 0 -d 1 -p cbr -e 512 -c 0 -i 5 -a 0 -x {0.0 8.0 5 ------- null}
+ -t 1.064096 -s 1 -d 2 -p cbr -e 512 -c 0 -i 5 -a 0 -x {0.0 8.0 5 ------- null}
- -t 1.064096 -s 1 -d 2 -p cbr -e 512 -c 0 -i 5 -a 0 -x {0.0 8.0 5 ------- null}
h -t 1.064096 -s 1 -d 2 -p cbr -e 512 -c 0 -i 5 -a 0 -x {0.0 8.0 -1 ------- null}
r -t 1.066384 -s 5 -d 8 -p cbr -e 512 -c 0 -i 1 -a 0 -x {0.0 8.0 1 ------- null}
r -t 1.068192 -s 1 -d 2 -p cbr -e 512 -c 0 -i 4 -a 0 -x {0.0 8.0 4 ------- null}
+ -t 1.068192 -s 2 -d 5 -p cbr -e 512 -c 0 -i 4 -a 0 -x {0.0 8.0 4 ------- null}
- -t 1.068192 -s 2 -d 5 -p cbr -e 512 -c 0 -i 4 -a 0 -x {0.0 8.0 4 ------- null}
h -t 1.068192 -s 2 -d 5 -p cbr -e 512 -c 0 -i 4 -a 0 -x {0.0 8.0 -1 ------- null}
+ -t 1.07 -s 0 -d 1 -p cbr -e 512 -c 0 -i 7 -a 0 -x {0.0 8.0 7 ------- null}
- -t 1.07 -s 0 -d 1 -p cbr -e 512 -c 0 -i 7 -a 0 -x {0.0 8.0 7 ------- null}
h -t 1.07 -s 0 -d 1 -p cbr -e 512 -c 0 -i 7 -a 0 -x {0.0 8.0 -1 ------- null}
r -t 1.072288 -s 2 -d 5 -p cbr -e 512 -c 0 -i 3 -a 0 -x {0.0 8.0 3 ------- null}
+ -t 1.072288 -s 5 -d 8 -p cbr -e 512 -c 0 -i 3 -a 0 -x {0.0 8.0 3 ------- null}
- -t 1.072288 -s 5 -d 8 -p cbr -e 512 -c 0 -i 3 -a 0 -x {0.0 8.0 3 ------- null}
h -t 1.072288 -s 5 -d 8 -p cbr -e 512 -c 0 -i 3 -a 0 -x {0.0 8.0 -1 ------- null}
r -t 1.074096 -s 0 -d 1 -p cbr -e 512 -c 0 -i 6 -a 0 -x {0.0 8.0 6 ------- null}
+ -t 1.074096 -s 1 -d 2 -p cbr -e 512 -c 0 -i 6 -a 0 -x {0.0 8.0 6 ------- null}
- -t 1.074096 -s 1 -d 2 -p cbr -e 512 -c 0 -i 6 -a 0 -x {0.0 8.0 6 ------- null}
h -t 1.074096 -s 1 -d 2 -p cbr -e 512 -c 0 -i 6 -a 0 -x {0.0 8.0 -1 ------- null}
r -t 1.076384 -s 5 -d 8 -p cbr -e 512 -c 0 -i 2 -a 0 -x {0.0 8.0 2 ------- null}
r -t 1.078192 -s 1 -d 2 -p cbr -e 512 -c 0 -i 5 -a 0 -x {0.0 8.0 5 ------- null}
+ -t 1.078192 -s 2 -d 5 -p cbr -e 512 -c 0 -i 5 -a 0 -x {0.0 8.0 5 ------- null}
- -t 1.078192 -s 2 -d 5 -p cbr -e 512 -c 0 -i 5 -a 0 -x {0.0 8.0 5 ------- null}
h -t 1.078192 -s 2 -d 5 -p cbr -e 512 -c 0 -i 5 -a 0 -x {0.0 8.0 -1 ------- null}
+ -t 1.08 -s 0 -d 1 -p cbr -e 512 -c 0 -i 8 -a 0 -x {0.0 8.0 8 ------- null}
- -t 1.08 -s 0 -d 1 -p cbr -e 512 -c 0 -i 8 -a 0 -x {0.0 8.0 8 ------- null}
h -t 1.08 -s 0 -d 1 -p cbr -e 512 -c 0 -i 8 -a 0 -x {0.0 8.0 -1 ------- null}
r -t 1.082288 -s 2 -d 5 -p cbr -e 512 -c 0 -i 4 -a 0 -x {0.0 8.0 4 ------- null}
+ -t 1.082288 -s 5 -d 8 -p cbr -e 512 -c 0 -i 4 -a 0 -x {0.0 8.0 4 ------- null}
- -t 1.082288 -s 5 -d 8 -p cbr -e 512 -c 0 -i 4 -a 0 -x {0.0 8.0 4 ------- null}
h -t 1.082288 -s 5 -d 8 -p cbr -e 512 -c 0 -i 4 -a 0 -x {0.0 8.0 -1 ------- null}
r -t 1.084096 -s 0 -d 1 -p cbr -e 512 -c 0 -i 7 -a 0 -x {0.0 8.0 7 ------- null}
+ -t 1.084096 -s 1 -d 2 -p cbr -e 512 -c 0 -i 7 -a 0 -x {0.0 8.0 7 ------- null}
- -t 1.084096 -s 1 -d 2 -p cbr -e 512 -c 0 -i 7 -a 0 -x {0.0 8.0 7 ------- null}
h -t 1.084096 -s 1 -d 2 -p cbr -e 512 -c 0 -i 7 -a 0 -x {0.0 8.0 -1 ------- null}
r -t 1.086384 -s 5 -d 8 -p cbr -e 512 -c 0 -i 3 -a 0 -x {0.0 8.0 3 ------- null}
r -t 1.088192 -s 1 -d 2 -p cbr -e 512 -c 0 -i 6 -a 0 -x {0.0 8.0 6 ------- null}
+ -t 1.088192 -s 2 -d 5 -p cbr -e 512 -c 0 -i 6 -a 0 -x {0.0 8.0 6 ------- null}
- -t 1.088192 -s 2 -d 5 -p cbr -e 512 -c 0 -i 6 -a 0 -x {0.0 8.0 6 ------- null}
h -t 1.088192 -s 2 -d 5 -p cbr -e 512 -c 0 -i 6 -a 0 -x {0.0 8.0 -1 ------- null}
+ -t 1.09 -s 0 -d 1 -p cbr -e 512 -c 0 -i 9 -a 0 -x {0.0 8.0 9 ------- null}
- -t 1.09 -s 0 -d 1 -p cbr -e 512 -c 0 -i 9 -a 0 -x {0.0 8.0 9 ------- null}
h -t 1.09 -s 0 -d 1 -p cbr -e 512 -c 0 -i 9 -a 0 -x {0.0 8.0 -1 ------- null}
r -t 1.092288 -s 2 -d 5 -p cbr -e 512 -c 0 -i 5 -a 0 -x {0.0 8.0 5 ------- null}
+ -t 1.092288 -s 5 -d 8 -p cbr -e 512 -c 0 -i 5 -a 0 -x {0.0 8.0 5 ------- null}
- -t 1.092288 -s 5 -d 8 -p cbr -e 512 -c 0 -i 5 -a 0 -x {0.0 8.0 5 ------- null}
h -t 1.092288 -s 5 -d 8 -p cbr -e 512 -c 0 -i 5 -a 0 -x {0.0 8.0 -1 ------- null}
r -t 1.094096 -s 0 -d 1 -p cbr -e 512 -c 0 -i 8 -a 0 -x {0.0 8.0 8 ------- null}
+ -t 1.094096 -s 1 -d 2 -p cbr -e 512 -c 0 -i 8 -a 0 -x {0.0 8.0 8 ------- null}
- -t 1.094096 -s 1 -d 2 -p cbr -e 512 -c 0 -i 8 -a 0 -x {0.0 8.0 8 ------- null}
h -t 1.094096 -s 1 -d 2 -p cbr -e 512 -c 0 -i 8 -a 0 -x {0.0 8.0 -1 ------- null}
r -t 1.096384 -s 5 -d 8 -p cbr -e 512 -c 0 -i 4 -a 0 -x {0.0 8.0 4 ------- null}
r -t 1.098192 -s 1 -d 2 -p cbr -e 512 -c 0 -i 7 -a 0 -x {0.0 8.0 7 ------- null}
+ -t 1.098192 -s 2 -d 5 -p cbr -e 512 -c 0 -i 7 -a 0 -x {0.0 8.0 7 ------- null}
- -t 1.098192 -s 2 -d 5 -p cbr -e 512 -c 0 -i 7 -a 0 -x {0.0 8.0 7 ------- null}
h -t 1.098192 -s 2 -d 5 -p cbr -e 512 -c 0 -i 7 -a 0 -x {0.0 8.0 -1 ------- null}
+ -t 1.1 -s 0 -d 1 -p cbr -e 512 -c 0 -i 10 -a 0 -x {0.0 8.0 10 ------- null}
- -t 1.1 -s 0 -d 1 -p cbr -e 512 -c 0 -i 10 -a 0 -x {0.0 8.0 10 ------- null}
h -t 1.1 -s 0 -d 1 -p cbr -e 512 -c 0 -i 10 -a 0 -x {0.0 8.0 -1 ------- null}
r -t 1.102288 -s 2 -d 5 -p cbr -e 512 -c 0 -i 6 -a 0 -x {0.0 8.0 6 ------- null}
+ -t 1.102288 -s 5 -d 8 -p cbr -e 512 -c 0 -i 6 -a 0 -x {0.0 8.0 6 ------- null}
- -t 1.102288 -s 5 -d 8 -p cbr -e 512 -c 0 -i 6 -a 0 -x {0.0 8.0 6 ------- null}
h -t 1.102288 -s 5 -d 8 -p cbr -e 512 -c 0 -i 6 -a 0 -x {0.0 8.0 -1 ------- null}
r -t 1.104096 -s 0 -d 1 -p cbr -e 512 -c 0 -i 9 -a 0 -x {0.0 8.0 9 ------- null}
+ -t 1.104096 -s 1 -d 2 -p cbr -e 512 -c 0 -i 9 -a 0 -x {0.0 8.0 9 ------- null}
- -t 1.104096 -s 1 -d 2 -p cbr -e 512 -c 0 -i 9 -a 0 -x {0.0 8.0 9 ------- null}
h -t 1.104096 -s 1 -d 2 -p cbr -e 512 -c 0 -i 9 -a 0 -x {0.0 8.0 -1 ------- null}
r -t 1.106384 -s 5 -d 8 -p cbr -e 512 -c 0 -i 5 -a 0 -x {0.0 8.0 5 ------- null}
r -t 1.108192 -s 1 -d 2 -p cbr -e 512 -c 0 -i 8 -a 0 -x {0.0 8.0 8 ------- null}
+ -t 1.108192 -s 2 -d 5 -p cbr -e 512 -c 0 -i 8 -a 0 -x {0.0 8.0 8 ------- null}
- -t 1.108192 -s 2 -d 5 -p cbr -e 512 -c 0 -i 8 -a 0 -x {0.0 8.0 8 ------- null}
h -t 1.108192 -s 2 -d 5 -p cbr -e 512 -c 0 -i 8 -a 0 -x {0.0 8.0 -1 ------- null}
+ -t 1.11 -s 0 -d 1 -p cbr -e 512 -c 0 -i 11 -a 0 -x {0.0 8.0 11 ------- null}
- -t 1.11 -s 0 -d 1 -p cbr -e 512 -c 0 -i 11 -a 0 -x {0.0 8.0 11 ------- null}
h -t 1.11 -s 0 -d 1 -p cbr -e 512 -c 0 -i 11 -a 0 -x {0.0 8.0 -1 ------- null}
r -t 1.112288 -s 2 -d 5 -p cbr -e 512 -c 0 -i 7 -a 0 -x {0.0 8.0 7 ------- null}
+ -t 1.112288 -s 5 -d 8 -p cbr -e 512 -c 0 -i 7 -a 0 -x {0.0 8.0 7 ------- null}
- -t 1.112288 -s 5 -d 8 -p cbr -e 512 -c 0 -i 7 -a 0 -x {0.0 8.0 7 ------- null}
h -t 1.112288 -s 5 -d 8 -p cbr -e 512 -c 0 -i 7 -a 0 -x {0.0 8.0 -1 ------- null}
r -t 1.114096 -s 0 -d 1 -p cbr -e 512 -c 0 -i 10 -a 0 -x {0.0 8.0 10 ------- null}
+ -t 1.114096 -s 1 -d 2 -p cbr -e 512 -c 0 -i 10 -a 0 -x {0.0 8.0 10 ------- null}
- -t 1.114096 -s 1 -d 2 -p cbr -e 512 -c 0 -i 10 -a 0 -x {0.0 8.0 10 ------- null}
h -t 1.114096 -s 1 -d 2 -p cbr -e 512 -c 0 -i 10 -a 0 -x {0.0 8.0 -1 ------- null}
r -t 1.116384 -s 5 -d 8 -p cbr -e 512 -c 0 -i 6 -a 0 -x {0.0 8.0 6 ------- null}
r -t 1.118192 -s 1 -d 2 -p cbr -e 512 -c 0 -i 9 -a 0 -x {0.0 8.0 9 ------- null}
+ -t 1.118192 -s 2 -d 5 -p cbr -e 512 -c 0 -i 9 -a 0 -x {0.0 8.0 9 ------- null}
- -t 1.118192 -s 2 -d 5 -p cbr -e 512 -c 0 -i 9 -a 0 -x {0.0 8.0 9 ------- null}
h -t 1.118192 -s 2 -d 5 -p cbr -e 512 -c 0 -i 9 -a 0 -x {0.0 8.0 -1 ------- null}
+ -t 1.12 -s 0 -d 1 -p cbr -e 512 -c 0 -i 12 -a 0 -x {0.0 8.0 12 ------- null}
- -t 1.12 -s 0 -d 1 -p cbr -e 512 -c 0 -i 12 -a 0 -x {0.0 8.0 12 ------- null}
h -t 1.12 -s 0 -d 1 -p cbr -e 512 -c 0 -i 12 -a 0 -x {0.0 8.0 -1 ------- null}
r -t 1.122288 -s 2 -d 5 -p cbr -e 512 -c 0 -i 8 -a 0 -x {0.0 8.0 8 ------- null}
+ -t 1.122288 -s 5 -d 8 -p cbr -e 512 -c 0 -i 8 -a 0 -x {0.0 8.0 8 ------- null}
- -t 1.122288 -s 5 -d 8 -p cbr -e 512 -c 0 -i 8 -a 0 -x {0.0 8.0 8 ------- null}
h -t 1.122288 -s 5 -d 8 -p cbr -e 512 -c 0 -i 8 -a 0 -x {0.0 8.0 -1 ------- null}
r -t 1.124096 -s 0 -d 1 -p cbr -e 512 -c 0 -i 11 -a 0 -x {0.0 8.0 11 ------- null}
+ -t 1.124096 -s 1 -d 2 -p cbr -e 512 -c 0 -i 11 -a 0 -x {0.0 8.0 11 ------- null}
- -t 1.124096 -s 1 -d 2 -p cbr -e 512 -c 0 -i 11 -a 0 -x {0.0 8.0 11 ------- null}
h -t 1.124096 -s 1 -d 2 -p cbr -e 512 -c 0 -i 11 -a 0 -x {0.0 8.0 -1 ------- null}
r -t 1.126384 -s 5 -d 8 -p cbr -e 512 -c 0 -i 7 -a 0 -x {0.0 8.0 7 ------- null}
r -t 1.128192 -s 1 -d 2 -p cbr -e 512 -c 0 -i 10 -a 0 -x {0.0 8.0 10 ------- null}
+ -t 1.128192 -s 2 -d 5 -p cbr -e 512 -c 0 -i 10 -a 0 -x {0.0 8.0 10 ------- null}
- -t 1.128192 -s 2 -d 5 -p cbr -e 512 -c 0 -i 10 -a 0 -x {0.0 8.0 10 ------- null}
h -t 1.128192 -s 2 -d 5 -p cbr -e 512 -c 0 -i 10 -a 0 -x {0.0 8.0 -1 ------- null}
+ -t 1.13 -s 0 -d 1 -p cbr -e 512 -c 0 -i 13 -a 0 -x {0.0 8.0 13 ------- null}
- -t 1.13 -s 0 -d 1 -p cbr -e 512 -c 0 -i 13 -a 0 -x {0.0 8.0 13 ------- null}
h -t 1.13 -s 0 -d 1 -p cbr -e 512 -c 0 -i 13 -a 0 -x {0.0 8.0 -1 ------- null}
r -t 1.132288 -s 2 -d 5 -p cbr -e 512 -c 0 -i 9 -a 0 -x {0.0 8.0 9 ------- null}
+ -t 1.132288 -s 5 -d 8 -p cbr -e 512 -c 0 -i 9 -a 0 -x {0.0 8.0 9 ------- null}
- -t 1.132288 -s 5 -d 8 -p cbr -e 512 -c 0 -i 9 -a 0 -x {0.0 8.0 9 ------- null}
h -t 1.132288 -s 5 -d 8 -p cbr -e 512 -c 0 -i 9 -a 0 -x {0.0 8.0 -1 ------- null}
r -t 1.134096 -s 0 -d 1 -p cbr -e 512 -c 0 -i 12 -a 0 -x {0.0 8.0 12 ------- null}
+ -t 1.134096 -s 1 -d 2 -p cbr -e 512 -c 0 -i 12 -a 0 -x {0.0 8.0 12 ------- null}
- -t 1.134096 -s 1 -d 2 -p cbr -e 512 -c 0 -i 12 -a 0 -x {0.0 8.0 12 ------- null}
h -t 1.134096 -s 1 -d 2 -p cbr -e 512 -c 0 -i 12 -a 0 -x {0.0 8.0 -1 ------- null}
r -t 1.136384 -s 5 -d 8 -p cbr -e 512 -c 0 -i 8 -a 0 -x {0.0 8.0 8 ------- null}
r -t 1.138192 -s 1 -d 2 -p cbr -e 512 -c 0 -i 11 -a 0 -x {0.0 8.0 11 ------- null}
+ -t 1.138192 -s 2 -d 5 -p cbr -e 512 -c 0 -i 11 -a 0 -x {0.0 8.0 11 ------- null}
- -t 1.138192 -s 2 -d 5 -p cbr -e 512 -c 0 -i 11 -a 0 -x {0.0 8.0 11 ------- null}
h -t 1.138192 -s 2 -d 5 -p cbr -e 512 -c 0 -i 11 -a 0 -x {0.0 8.0 -1 ------- null}
+ -t 1.14 -s 0 -d 1 -p cbr -e 512 -c 0 -i 14 -a 0 -x {0.0 8.0 14 ------- null}
- -t 1.14 -s 0 -d 1 -p cbr -e 512 -c 0 -i 14 -a 0 -x {0.0 8.0 14 ------- null}
h -t 1.14 -s 0 -d 1 -p cbr -e 512 -c 0 -i 14 -a 0 -x {0.0 8.0 -1 ------- null}
r -t 1.142288 -s 2 -d 5 -p cbr -e 512 -c 0 -i 10 -a 0 -x {0.0 8.0 10 ------- null}
+ -t 1.142288 -s 5 -d 8 -p cbr -e 512 -c 0 -i 10 -a 0 -x {0.0 8.0 10 ------- null}
- -t 1.142288 -s 5 -d 8 -p cbr -e 512 -c 0 -i 10 -a 0 -x {0.0 8.0 10 ------- null}
h -t 1.142288 -s 5 -d 8 -p cbr -e 512 -c 0 -i 10 -a 0 -x {0.0 8.0 -1 ------- null}
r -t 1.144096 -s 0 -d 1 -p cbr -e 512 -c 0 -i 13 -a 0 -x {0.0 8.0 13 ------- null}
+ -t 1.144096 -s 1 -d 2 -p cbr -e 512 -c 0 -i 13 -a 0 -x {0.0 8.0 13 ------- null}
- -t 1.144096 -s 1 -d 2 -p cbr -e 512 -c 0 -i 13 -a 0 -x {0.0 8.0 13 ------- null}
h -t 1.144096 -s 1 -d 2 -p cbr -e 512 -c 0 -i 13 -a 0 -x {0.0 8.0 -1 ------- null}
r -t 1.146384 -s 5 -d 8 -p cbr -e 512 -c 0 -i 9 -a 0 -x {0.0 8.0 9 ------- null}
r -t 1.148192 -s 1 -d 2 -p cbr -e 512 -c 0 -i 12 -a 0 -x {0.0 8.0 12 ------- null}
+ -t 1.148192 -s 2 -d 5 -p cbr -e 512 -c 0 -i 12 -a 0 -x {0.0 8.0 12 ------- null}
- -t 1.148192 -s 2 -d 5 -p cbr -e 512 -c 0 -i 12 -a 0 -x {0.0 8.0 12 ------- null}
h -t 1.148192 -s 2 -d 5 -p cbr -e 512 -c 0 -i 12 -a 0 -x {0.0 8.0 -1 ------- null}
+ -t 1.15 -s 0 -d 1 -p cbr -e 512 -c 0 -i 15 -a 0 -x {0.0 8.0 15 ------- null}
- -t 1.15 -s 0 -d 1 -p cbr -e 512 -c 0 -i 15 -a 0 -x {0.0 8.0 15 ------- null}
h -t 1.15 -s 0 -d 1 -p cbr -e 512 -c 0 -i 15 -a 0 -x {0.0 8.0 -1 ------- null}
r -t 1.152288 -s 2 -d 5 -p cbr -e 512 -c 0 -i 11 -a 0 -x {0.0 8.0 11 ------- null}
+ -t 1.152288 -s 5 -d 8 -p cbr -e 512 -c 0 -i 11 -a 0 -x {0.0 8.0 11 ------- null}
- -t 1.152288 -s 5 -d 8 -p cbr -e 512 -c 0 -i 11 -a 0 -x {0.0 8.0 11 ------- null}
h -t 1.152288 -s 5 -d 8 -p cbr -e 512 -c 0 -i 11 -a 0 -x {0.0 8.0 -1 ------- null}
r -t 1.154096 -s 0 -d 1 -p cbr -e 512 -c 0 -i 14 -a 0 -x {0.0 8.0 14 ------- null}
+ -t 1.154096 -s 1 -d 2 -p cbr -e 512 -c 0 -i 14 -a 0 -x {0.0 8.0 14 ------- null}
- -t 1.154096 -s 1 -d 2 -p cbr -e 512 -c 0 -i 14 -a 0 -x {0.0 8.0 14 ------- null}
h -t 1.154096 -s 1 -d 2 -p cbr -e 512 -c 0 -i 14 -a 0 -x {0.0 8.0 -1 ------- null}
r -t 1.156384 -s 5 -d 8 -p cbr -e 512 -c 0 -i 10 -a 0 -x {0.0 8.0 10 ------- null}
r -t 1.158192 -s 1 -d 2 -p cbr -e 512 -c 0 -i 13 -a 0 -x {0.0 8.0 13 ------- null}
+ -t 1.158192 -s 2 -d 5 -p cbr -e 512 -c 0 -i 13 -a 0 -x {0.0 8.0 13 ------- null}
- -t 1.158192 -s 2 -d 5 -p cbr -e 512 -c 0 -i 13 -a 0 -x {0.0 8.0 13 ------- null}
h -t 1.158192 -s 2 -d 5 -p cbr -e 512 -c 0 -i 13 -a 0 -x {0.0 8.0 -1 ------- null}
+ -t 1.16 -s 0 -d 1 -p cbr -e 512 -c 0 -i 16 -a 0 -x {0.0 8.0 16 ------- null}
- -t 1.16 -s 0 -d 1 -p cbr -e 512 -c 0 -i 16 -a 0 -x {0.0 8.0 16 ------- null}
h -t 1.16 -s 0 -d 1 -p cbr -e 512 -c 0 -i 16 -a 0 -x {0.0 8.0 -1 ------- null}
r -t 1.162288 -s 2 -d 5 -p cbr -e 512 -c 0 -i 12 -a 0 -x {0.0 8.0 12 ------- null}
+ -t 1.162288 -s 5 -d 8 -p cbr -e 512 -c 0 -i 12 -a 0 -x {0.0 8.0 12 ------- null}
- -t 1.162288 -s 5 -d 8 -p cbr -e 512 -c 0 -i 12 -a 0 -x {0.0 8.0 12 ------- null}
h -t 1.162288 -s 5 -d 8 -p cbr -e 512 -c 0 -i 12 -a 0 -x {0.0 8.0 -1 ------- null}
r -t 1.164096 -s 0 -d 1 -p cbr -e 512 -c 0 -i 15 -a 0 -x {0.0 8.0 15 ------- null}
+ -t 1.164096 -s 1 -d 2 -p cbr -e 512 -c 0 -i 15 -a 0 -x {0.0 8.0 15 ------- null}
- -t 1.164096 -s 1 -d 2 -p cbr -e 512 -c 0 -i 15 -a 0 -x {0.0 8.0 15 ------- null}
h -t 1.164096 -s 1 -d 2 -p cbr -e 512 -c 0 -i 15 -a 0 -x {0.0 8.0 -1 ------- null}
r -t 1.166384 -s 5 -d 8 -p cbr -e 512 -c 0 -i 11 -a 0 -x {0.0 8.0 11 ------- null}
r -t 1.168192 -s 1 -d 2 -p cbr -e 512 -c 0 -i 14 -a 0 -x {0.0 8.0 14 ------- null}
+ -t 1.168192 -s 2 -d 5 -p cbr -e 512 -c 0 -i 14 -a 0 -x {0.0 8.0 14 ------- null}
- -t 1.168192 -s 2 -d 5 -p cbr -e 512 -c 0 -i 14 -a 0 -x {0.0 8.0 14 ------- null}
h -t 1.168192 -s 2 -d 5 -p cbr -e 512 -c 0 -i 14 -a 0 -x {0.0 8.0 -1 ------- null}
+ -t 1.17 -s 0 -d 1 -p cbr -e 512 -c 0 -i 17 -a 0 -x {0.0 8.0 17 ------- null}
- -t 1.17 -s 0 -d 1 -p cbr -e 512 -c 0 -i 17 -a 0 -x {0.0 8.0 17 ------- null}
h -t 1.17 -s 0 -d 1 -p cbr -e 512 -c 0 -i 17 -a 0 -x {0.0 8.0 -1 ------- null}
r -t 1.172288 -s 2 -d 5 -p cbr -e 512 -c 0 -i 13 -a 0 -x {0.0 8.0 13 ------- null}
+ -t 1.172288 -s 5 -d 8 -p cbr -e 512 -c 0 -i 13 -a 0 -x {0.0 8.0 13 ------- null}
- -t 1.172288 -s 5 -d 8 -p cbr -e 512 -c 0 -i 13 -a 0 -x {0.0 8.0 13 ------- null}
h -t 1.172288 -s 5 -d 8 -p cbr -e 512 -c 0 -i 13 -a 0 -x {0.0 8.0 -1 ------- null}
r -t 1.174096 -s 0 -d 1 -p cbr -e 512 -c 0 -i 16 -a 0 -x {0.0 8.0 16 ------- null}
+ -t 1.174096 -s 1 -d 2 -p cbr -e 512 -c 0 -i 16 -a 0 -x {0.0 8.0 16 ------- null}
- -t 1.174096 -s 1 -d 2 -p cbr -e 512 -c 0 -i 16 -a 0 -x {0.0 8.0 16 ------- null}
h -t 1.174096 -s 1 -d 2 -p cbr -e 512 -c 0 -i 16 -a 0 -x {0.0 8.0 -1 ------- null}
r -t 1.176384 -s 5 -d 8 -p cbr -e 512 -c 0 -i 12 -a 0 -x {0.0 8.0 12 ------- null}
r -t 1.178192 -s 1 -d 2 -p cbr -e 512 -c 0 -i 15 -a 0 -x {0.0 8.0 15 ------- null}
+ -t 1.178192 -s 2 -d 5 -p cbr -e 512 -c 0 -i 15 -a 0 -x {0.0 8.0 15 ------- null}
- -t 1.178192 -s 2 -d 5 -p cbr -e 512 -c 0 -i 15 -a 0 -x {0.0 8.0 15 ------- null}
h -t 1.178192 -s 2 -d 5 -p cbr -e 512 -c 0 -i 15 -a 0 -x {0.0 8.0 -1 ------- null}
+ -t 1.18 -s 0 -d 1 -p cbr -e 512 -c 0 -i 18 -a 0 -x {0.0 8.0 18 ------- null}
- -t 1.18 -s 0 -d 1 -p cbr -e 512 -c 0 -i 18 -a 0 -x {0.0 8.0 18 ------- null}
h -t 1.18 -s 0 -d 1 -p cbr -e 512 -c 0 -i 18 -a 0 -x {0.0 8.0 -1 ------- null}
r -t 1.182288 -s 2 -d 5 -p cbr -e 512 -c 0 -i 14 -a 0 -x {0.0 8.0 14 ------- null}
+ -t 1.182288 -s 5 -d 8 -p cbr -e 512 -c 0 -i 14 -a 0 -x {0.0 8.0 14 ------- null}
- -t 1.182288 -s 5 -d 8 -p cbr -e 512 -c 0 -i 14 -a 0 -x {0.0 8.0 14 ------- null}
h -t 1.182288 -s 5 -d 8 -p cbr -e 512 -c 0 -i 14 -a 0 -x {0.0 8.0 -1 ------- null}
r -t 1.184096 -s 0 -d 1 -p cbr -e 512 -c 0 -i 17 -a 0 -x {0.0 8.0 17 ------- null}
+ -t 1.184096 -s 1 -d 2 -p cbr -e 512 -c 0 -i 17 -a 0 -x {0.0 8.0 17 ------- null}
- -t 1.184096 -s 1 -d 2 -p cbr -e 512 -c 0 -i 17 -a 0 -x {0.0 8.0 17 ------- null}
h -t 1.184096 -s 1 -d 2 -p cbr -e 512 -c 0 -i 17 -a 0 -x {0.0 8.0 -1 ------- null}
r -t 1.186384 -s 5 -d 8 -p cbr -e 512 -c 0 -i 13 -a 0 -x {0.0 8.0 13 ------- null}
r -t 1.188192 -s 1 -d 2 -p cbr -e 512 -c 0 -i 16 -a 0 -x {0.0 8.0 16 ------- null}
+ -t 1.188192 -s 2 -d 5 -p cbr -e 512 -c 0 -i 16 -a 0 -x {0.0 8.0 16 ------- null}
- -t 1.188192 -s 2 -d 5 -p cbr -e 512 -c 0 -i 16 -a 0 -x {0.0 8.0 16 ------- null}
h -t 1.188192 -s 2 -d 5 -p cbr -e 512 -c 0 -i 16 -a 0 -x {0.0 8.0 -1 ------- null}
+ -t 1.19 -s 0 -d 1 -p cbr -e 512 -c 0 -i 19 -a 0 -x {0.0 8.0 19 ------- null}
- -t 1.19 -s 0 -d 1 -p cbr -e 512 -c 0 -i 19 -a 0 -x {0.0 8.0 19 ------- null}
h -t 1.19 -s 0 -d 1 -p cbr -e 512 -c 0 -i 19 -a 0 -x {0.0 8.0 -1 ------- null}
r -t 1.192288 -s 2 -d 5 -p cbr -e 512 -c 0 -i 15 -a 0 -x {0.0 8.0 15 ------- null}
+ -t 1.192288 -s 5 -d 8 -p cbr -e 512 -c 0 -i 15 -a 0 -x {0.0 8.0 15 ------- null}
- -t 1.192288 -s 5 -d 8 -p cbr -e 512 -c 0 -i 15 -a 0 -x {0.0 8.0 15 ------- null}
h -t 1.192288 -s 5 -d 8 -p cbr -e 512 -c 0 -i 15 -a 0 -x {0.0 8.0 -1 ------- null}
r -t 1.194096 -s 0 -d 1 -p cbr -e 512 -c 0 -i 18 -a 0 -x {0.0 8.0 18 ------- null}
+ -t 1.194096 -s 1 -d 2 -p cbr -e 512 -c 0 -i 18 -a 0 -x {0.0 8.0 18 ------- null}
- -t 1.194096 -s 1 -d 2 -p cbr -e 512 -c 0 -i 18 -a 0 -x {0.0 8.0 18 ------- null}
h -t 1.194096 -s 1 -d 2 -p cbr -e 512 -c 0 -i 18 -a 0 -x {0.0 8.0 -1 ------- null}
r -t 1.196384 -s 5 -d 8 -p cbr -e 512 -c 0 -i 14 -a 0 -x {0.0 8.0 14 ------- null}
r -t 1.198192 -s 1 -d 2 -p cbr -e 512 -c 0 -i 17 -a 0 -x {0.0 8.0 17 ------- null}
+ -t 1.198192 -s 2 -d 5 -p cbr -e 512 -c 0 -i 17 -a 0 -x {0.0 8.0 17 ------- null}
- -t 1.198192 -s 2 -d 5 -p cbr -e 512 -c 0 -i 17 -a 0 -x {0.0 8.0 17 ------- null}
h -t 1.198192 -s 2 -d 5 -p cbr -e 512 -c 0 -i 17 -a 0 -x {0.0 8.0 -1 ------- null}
+ -t 1.2 -s 2 -d 1 -p tcp -e 40 -c 0 -i 20 -a 0 -x {2.0 6.0 0 ------- null}
- -t 1.2 -s 2 -d 1 -p tcp -e 40 -c 0 -i 20 -a 0 -x {2.0 6.0 0 ------- null}
h -t 1.2 -s 2 -d 1 -p tcp -e 40 -c 0 -i 20 -a 0 -x {2.0 6.0 -1 ------- null}
+ -t 1.2 -s 0 -d 1 -p cbr -e 512 -c 0 -i 21 -a 0 -x {0.0 8.0 20 ------- null}
- -t 1.2 -s 0 -d 1 -p cbr -e 512 -c 0 -i 21 -a 0 -x {0.0 8.0 20 ------- null}
h -t 1.2 -s 0 -d 1 -p cbr -e 512 -c 0 -i 21 -a 0 -x {0.0 8.0 -1 ------- null}
r -t 1.202288 -s 2 -d 5 -p cbr -e 512 -c 0 -i 16 -a 0 -x {0.0 8.0 16 ------- null}
+ -t 1.202288 -s 5 -d 8 -p cbr -e 512 -c 0 -i 16 -a 0 -x {0.0 8.0 16 ------- null}
- -t 1.202288 -s 5 -d 8 -p cbr -e 512 -c 0 -i 16 -a 0 -x {0.0 8.0 16 ------- null}
h -t 1.202288 -s 5 -d 8 -p cbr -e 512 -c 0 -i 16 -a 0 -x {0.0 8.0 -1 ------- null}
r -t 1.204096 -s 0 -d 1 -p cbr -e 512 -c 0 -i 19 -a 0 -x {0.0 8.0 19 ------- null}
+ -t 1.204096 -s 1 -d 2 -p cbr -e 512 -c 0 -i 19 -a 0 -x {0.0 8.0 19 ------- null}
- -t 1.204096 -s 1 -d 2 -p cbr -e 512 -c 0 -i 19 -a 0 -x {0.0 8.0 19 ------- null}
h -t 1.204096 -s 1 -d 2 -p cbr -e 512 -c 0 -i 19 -a 0 -x {0.0 8.0 -1 ------- null}
r -t 1.206384 -s 5 -d 8 -p cbr -e 512 -c 0 -i 15 -a 0 -x {0.0 8.0 15 ------- null}
r -t 1.208192 -s 1 -d 2 -p cbr -e 512 -c 0 -i 18 -a 0 -x {0.0 8.0 18 ------- null}
+ -t 1.208192 -s 2 -d 5 -p cbr -e 512 -c 0 -i 18 -a 0 -x {0.0 8.0 18 ------- null}
- -t 1.208192 -s 2 -d 5 -p cbr -e 512 -c 0 -i 18 -a 0 -x {0.0 8.0 18 ------- null}
h -t 1.208192 -s 2 -d 5 -p cbr -e 512 -c 0 -i 18 -a 0 -x {0.0 8.0 -1 ------- null}
+ -t 1.21 -s 0 -d 1 -p cbr -e 512 -c 0 -i 22 -a 0 -x {0.0 8.0 21 ------- null}
- -t 1.21 -s 0 -d 1 -p cbr -e 512 -c 0 -i 22 -a 0 -x {0.0 8.0 21 ------- null}
h -t 1.21 -s 0 -d 1 -p cbr -e 512 -c 0 -i 22 -a 0 -x {0.0 8.0 -1 ------- null}
r -t 1.21032 -s 2 -d 1 -p tcp -e 40 -c 0 -i 20 -a 0 -x {2.0 6.0 0 ------- null}
+ -t 1.21032 -s 1 -d 0 -p tcp -e 40 -c 0 -i 20 -a 0 -x {2.0 6.0 0 ------- null}
- -t 1.21032 -s 1 -d 0 -p tcp -e 40 -c 0 -i 20 -a 0 -x {2.0 6.0 0 ------- null}
h -t 1.21032 -s 1 -d 0 -p tcp -e 40 -c 0 -i 20 -a 0 -x {2.0 6.0 -1 ------- null}
r -t 1.212288 -s 2 -d 5 -p cbr -e 512 -c 0 -i 17 -a 0 -x {0.0 8.0 17 ------- null}
+ -t 1.212288 -s 5 -d 8 -p cbr -e 512 -c 0 -i 17 -a 0 -x {0.0 8.0 17 ------- null}
- -t 1.212288 -s 5 -d 8 -p cbr -e 512 -c 0 -i 17 -a 0 -x {0.0 8.0 17 ------- null}
h -t 1.212288 -s 5 -d 8 -p cbr -e 512 -c 0 -i 17 -a 0 -x {0.0 8.0 -1 ------- null}
r -t 1.214096 -s 0 -d 1 -p cbr -e 512 -c 0 -i 21 -a 0 -x {0.0 8.0 20 ------- null}
+ -t 1.214096 -s 1 -d 2 -p cbr -e 512 -c 0 -i 21 -a 0 -x {0.0 8.0 20 ------- null}
- -t 1.214096 -s 1 -d 2 -p cbr -e 512 -c 0 -i 21 -a 0 -x {0.0 8.0 20 ------- null}
h -t 1.214096 -s 1 -d 2 -p cbr -e 512 -c 0 -i 21 -a 0 -x {0.0 8.0 -1 ------- null}
r -t 1.216384 -s 5 -d 8 -p cbr -e 512 -c 0 -i 16 -a 0 -x {0.0 8.0 16 ------- null}
r -t 1.218192 -s 1 -d 2 -p cbr -e 512 -c 0 -i 19 -a 0 -x {0.0 8.0 19 ------- null}
+ -t 1.218192 -s 2 -d 5 -p cbr -e 512 -c 0 -i 19 -a 0 -x {0.0 8.0 19 ------- null}
- -t 1.218192 -s 2 -d 5 -p cbr -e 512 -c 0 -i 19 -a 0 -x {0.0 8.0 19 ------- null}
h -t 1.218192 -s 2 -d 5 -p cbr -e 512 -c 0 -i 19 -a 0 -x {0.0 8.0 -1 ------- null}
+ -t 1.22 -s 0 -d 1 -p cbr -e 512 -c 0 -i 23 -a 0 -x {0.0 8.0 22 ------- null}
- -t 1.22 -s 0 -d 1 -p cbr -e 512 -c 0 -i 23 -a 0 -x {0.0 8.0 22 ------- null}
h -t 1.22 -s 0 -d 1 -p cbr -e 512 -c 0 -i 23 -a 0 -x {0.0 8.0 -1 ------- null}
r -t 1.22064 -s 1 -d 0 -p tcp -e 40 -c 0 -i 20 -a 0 -x {2.0 6.0 0 ------- null}
+ -t 1.22064 -s 0 -d 3 -p tcp -e 40 -c 0 -i 20 -a 0 -x {2.0 6.0 0 ------- null}
- -t 1.22064 -s 0 -d 3 -p tcp -e 40 -c 0 -i 20 -a 0 -x {2.0 6.0 0 ------- null}
h -t 1.22064 -s 0 -d 3 -p tcp -e 40 -c 0 -i 20 -a 0 -x {2.0 6.0 -1 ------- null}
r -t 1.222288 -s 2 -d 5 -p cbr -e 512 -c 0 -i 18 -a 0 -x {0.0 8.0 18 ------- null}
+ -t 1.222288 -s 5 -d 8 -p cbr -e 512 -c 0 -i 18 -a 0 -x {0.0 8.0 18 ------- null}
- -t 1.222288 -s 5 -d 8 -p cbr -e 512 -c 0 -i 18 -a 0 -x {0.0 8.0 18 ------- null}
h -t 1.222288 -s 5 -d 8 -p cbr -e 512 -c 0 -i 18 -a 0 -x {0.0 8.0 -1 ------- null}
r -t 1.224096 -s 0 -d 1 -p cbr -e 512 -c 0 -i 22 -a 0 -x {0.0 8.0 21 ------- null}
+ -t 1.224096 -s 1 -d 2 -p cbr -e 512 -c 0 -i 22 -a 0 -x {0.0 8.0 21 ------- null}
- -t 1.224096 -s 1 -d 2 -p cbr -e 512 -c 0 -i 22 -a 0 -x {0.0 8.0 21 ------- null}
h -t 1.224096 -s 1 -d 2 -p cbr -e 512 -c 0 -i 22 -a 0 -x {0.0 8.0 -1 ------- null}
r -t 1.226384 -s 5 -d 8 -p cbr -e 512 -c 0 -i 17 -a 0 -x {0.0 8.0 17 ------- null}
r -t 1.228192 -s 1 -d 2 -p cbr -e 512 -c 0 -i 21 -a 0 -x {0.0 8.0 20 ------- null}
+ -t 1.228192 -s 2 -d 5 -p cbr -e 512 -c 0 -i 21 -a 0 -x {0.0 8.0 20 ------- null}
- -t 1.228192 -s 2 -d 5 -p cbr -e 512 -c 0 -i 21 -a 0 -x {0.0 8.0 20 ------- null}
h -t 1.228192 -s 2 -d 5 -p cbr -e 512 -c 0 -i 21 -a 0 -x {0.0 8.0 -1 ------- null}
+ -t 1.23 -s 0 -d 1 -p cbr -e 512 -c 0 -i 24 -a 0 -x {0.0 8.0 23 ------- null}
- -t 1.23 -s 0 -d 1 -p cbr -e 512 -c 0 -i 24 -a 0 -x {0.0 8.0 23 ------- null}
h -t 1.23 -s 0 -d 1 -p cbr -e 512 -c 0 -i 24 -a 0 -x {0.0 8.0 -1 ------- null}
r -t 1.23096 -s 0 -d 3 -p tcp -e 40 -c 0 -i 20 -a 0 -x {2.0 6.0 0 ------- null}
+ -t 1.23096 -s 3 -d 6 -p tcp -e 40 -c 0 -i 20 -a 0 -x {2.0 6.0 0 ------- null}
- -t 1.23096 -s 3 -d 6 -p tcp -e 40 -c 0 -i 20 -a 0 -x {2.0 6.0 0 ------- null}
h -t 1.23096 -s 3 -d 6 -p tcp -e 40 -c 0 -i 20 -a 0 -x {2.0 6.0 -1 ------- null}
r -t 1.232288 -s 2 -d 5 -p cbr -e 512 -c 0 -i 19 -a 0 -x {0.0 8.0 19 ------- null}
+ -t 1.232288 -s 5 -d 8 -p cbr -e 512 -c 0 -i 19 -a 0 -x {0.0 8.0 19 ------- null}